 Entering Gaussian System, Link 0=g09
 Input=formic_dimer.com
 Output=formic_dimer.log
 Initial command:
 /global/g09-revC/l1.exe /scratch/cn410107.137177/Gau-41667.inp -scrdir=/scratch/cn410107.137177/
 Entering Link 1 = /global/g09-revC/l1.exe PID=     41668.
  
 Copyright (c) 1988,1990,1992,1993,1995,1998,2003,2009,2011,
            Gaussian, Inc.  All Rights Reserved.
  
 This is part of the Gaussian(R) 09 program.  It is based on
 the Gaussian(R) 03 system (copyright 2003, Gaussian, Inc.),
 the Gaussian(R) 98 system (copyright 1998, Gaussian, Inc.),
 the Gaussian(R) 94 system (copyright 1995, Gaussian, Inc.),
 the Gaussian 92(TM) system (copyright 1992, Gaussian, Inc.),
 the Gaussian 90(TM) system (copyright 1990, Gaussian, Inc.),
 the Gaussian 88(TM) system (copyright 1988, Gaussian, Inc.),
 the Gaussian 86(TM) system (copyright 1986, Carnegie Mellon
 University), and the Gaussian 82(TM) system (copyright 1983,
 Carnegie Mellon University). Gaussian is a federally registered
 trademark of Gaussian, Inc.
  
 This software contains proprietary and confidential information,
 including trade secrets, belonging to Gaussian, Inc.
  
 This software is provided under written license and may be
 used, copied, transmitted, or stored only in accord with that
 written license.
  
 The following legend is applicable only to US Government
 contracts under FAR:
  
                    RESTRICTED RIGHTS LEGEND
  
 Use, reproduction and disclosure by the US Government is
 subject to restrictions as set forth in subparagraphs (a)
 and (c) of the Commercial Computer Software - Restricted
 Rights clause in FAR 52.227-19.
  
 Gaussian, Inc.
 340 Quinnipiac St., Bldg. 40, Wallingford CT 06492
  
  
 ---------------------------------------------------------------
 Warning -- This program may not be used in any manner that
 competes with the business of Gaussian, Inc. or will provide
 assistance to any competitor of Gaussian, Inc.  The licensee
 of this program is prohibited from giving any competitor of
 Gaussian, Inc. access to this program.  By using this program,
 the user acknowledges that Gaussian, Inc. is engaged in the
 business of creating and licensing software in the field of
 computational chemistry and represents and warrants to the
 licensee that it is not a competitor of Gaussian, Inc. and that
 it will not use this program in any manner prohibited above.
 ---------------------------------------------------------------
  

 Cite this work as:
 Gaussian 09, Revision C.01,
 M. J. Frisch, G. W. Trucks, H. B. Schlegel, G. E. Scuseria, 
 M. A. Robb, J. R. Cheeseman, G. Scalmani, V. Barone, B. Mennucci, 
 G. A. Petersson, H. Nakatsuji, M. Caricato, X. Li, H. P. Hratchian, 
 A. F. Izmaylov, J. Bloino, G. Zheng, J. L. Sonnenberg, M. Hada, 
 M. Ehara, K. Toyota, R. Fukuda, J. Hasegawa, M. Ishida, T. Nakajima, 
 Y. Honda, O. Kitao, H. Nakai, T. Vreven, J. A. Montgomery, Jr., 
 J. E. Peralta, F. Ogliaro, M. Bearpark, J. J. Heyd, E. Brothers, 
 K. N. Kudin, V. N. Staroverov, T. Keith, R. Kobayashi, J. Normand, 
 K. Raghavachari, A. Rendell, J. C. Burant, S. S. Iyengar, J. Tomasi, 
 M. Cossi, N. Rega, J. M. Millam, M. Klene, J. E. Knox, J. B. Cross, 
 V. Bakken, C. Adamo, J. Jaramillo, R. Gomperts, R. E. Stratmann, 
 O. Yazyev, A. J. Austin, R. Cammi, C. Pomelli, J. W. Ochterski, 
 R. L. Martin, K. Morokuma, V. G. Zakrzewski, G. A. Voth, 
 P. Salvador, J. J. Dannenberg, S. Dapprich, A. D. Daniels, 
 O. Farkas, J. B. Foresman, J. V. Ortiz, J. Cioslowski, 
 and D. J. Fox, Gaussian, Inc., Wallingford CT, 2010.
 
 ******************************************
 Gaussian 09:  EM64L-G09RevC.01 23-Sep-2011
                22-Sep-2018 
 ******************************************
 %nproc=2
 Will use up to    2 processors via shared memory.
 %mem=1GB
 -------------------
 #HF STO-3G opt freq
 -------------------
 1/18=20,19=15,38=1/1,3;
 2/9=110,12=2,17=6,18=5,40=1/2;
 3/6=3,11=9,16=1,25=1,30=1,71=1/1,2,3;
 4//1;
 5/5=2,38=5/2;
 6/7=2,8=2,9=2,10=2,28=1/1;
 7//1,2,3,16;
 1/18=20,19=15/3(2);
 2/9=110/2;
 99//99;
 2/9=110/2;
 3/6=3,11=9,16=1,25=1,30=1,71=1/1,2,3;
 4/5=5,16=3/1;
 5/5=2,38=5/2;
 7//1,2,3,16;
 1/18=20,19=15/3(-5);
 2/9=110/2;
 6/7=2,8=2,9=2,10=2,19=2,28=1/1;
 99/9=1/99;
 -----------------
 Formic Acid Dimer
 -----------------
 Charge =  0 Multiplicity = 1
 Symbolic Z-Matrix:
 C1
 O2                   C1    1.2 
 O3                   C1    1.45     O2    120. 
 H4                   C1    1.       O3    120.     O2    180.     0
 H5                   O3    0.98     C1    120.     O2    0.       0
 H6                   O2    2.       C1    120.     O3    0.       0
 O7                   H6    0.98     O2    180.     C1    0.       0
 C8                   O7    1.45     H6    120.     H5    0.       0
 O9                   C8    1.2      O7    120.     H4    0.       0
 H10                  C8    1.       O7    120.     O9    180.     0
 

 GradGradGradGradGradGradGradGradGradGradGradGradGradGradGradGradGradGrad
 Berny optimization.
 Initialization pass.
                           ----------------------------
                           !    Initial Parameters    !
                           ! (Angstroms and Degrees)  !
 --------------------------                            --------------------------
 ! Name  Definition              Value          Derivative Info.                !
 --------------------------------------------------------------------------------
 ! R1    R(1,2)                  1.2            estimate D2E/DX2                !
 ! R2    R(1,3)                  1.45           estimate D2E/DX2                !
 ! R3    R(1,4)                  1.0            estimate D2E/DX2                !
 ! R4    R(2,6)                  2.0            estimate D2E/DX2                !
 ! R5    R(3,5)                  0.98           estimate D2E/DX2                !
 ! R6    R(5,9)                  2.0            estimate D2E/DX2                !
 ! R7    R(6,7)                  0.98           estimate D2E/DX2                !
 ! R8    R(7,8)                  1.45           estimate D2E/DX2                !
 ! R9    R(8,9)                  1.2            estimate D2E/DX2                !
 ! R10   R(8,10)                 1.0            estimate D2E/DX2                !
 ! A1    A(2,1,3)              120.0            estimate D2E/DX2                !
 ! A2    A(2,1,4)              120.0            estimate D2E/DX2                !
 ! A3    A(3,1,4)              120.0            estimate D2E/DX2                !
 ! A4    A(1,2,6)              120.0            estimate D2E/DX2                !
 ! A5    A(1,3,5)              120.0            estimate D2E/DX2                !
 ! A6    A(6,7,8)              120.0            estimate D2E/DX2                !
 ! A7    A(7,8,9)              120.0            estimate D2E/DX2                !
 ! A8    A(7,8,10)             120.0            estimate D2E/DX2                !
 ! A9    A(9,8,10)             120.0            estimate D2E/DX2                !
 ! A10   A(5,9,8)              120.0            estimate D2E/DX2                !
 ! A11   L(3,5,9,6,-1)         180.0            estimate D2E/DX2                !
 ! A12   L(2,6,7,5,-1)         180.0            estimate D2E/DX2                !
 ! A13   L(3,5,9,6,-2)         180.0            estimate D2E/DX2                !
 ! A14   L(2,6,7,5,-2)         180.0            estimate D2E/DX2                !
 ! D1    D(3,1,2,6)              0.0            estimate D2E/DX2                !
 ! D2    D(4,1,2,6)            180.0            estimate D2E/DX2                !
 ! D3    D(2,1,3,5)              0.0            estimate D2E/DX2                !
 ! D4    D(4,1,3,5)            180.0            estimate D2E/DX2                !
 ! D5    D(1,2,7,8)              0.0            estimate D2E/DX2                !
 ! D6    D(1,3,9,8)              0.0            estimate D2E/DX2                !
 ! D7    D(6,7,8,9)              0.0            estimate D2E/DX2                !
 ! D8    D(6,7,8,10)           180.0            estimate D2E/DX2                !
 ! D9    D(7,8,9,5)              0.0            estimate D2E/DX2                !
 ! D10   D(10,8,9,5)           180.0            estimate D2E/DX2                !
 --------------------------------------------------------------------------------
 Trust Radius=3.00D-01 FncErr=1.00D-07 GrdErr=1.00D-07
 Number of steps in this run=     44 maximum allowed number of steps=    100.
 GradGradGradGradGradGradGradGradGradGradGradGradGradGradGradGradGradGrad

                          Input orientation:                          
 ---------------------------------------------------------------------
 Center     Atomic      Atomic             Coordinates (Angstroms)
 Number     Number       Type             X           Y           Z
 ---------------------------------------------------------------------
      1          6           0        0.000000    0.000000    0.000000
      2          8           0        0.000000    0.000000    1.200000
      3          8           0        1.255737    0.000000   -0.725000
      4          1           0       -0.866025    0.000000   -0.500000
      5          1           0        2.104442    0.000000   -0.235000
      6          1           0        1.732051    0.000000    2.200000
      7          8           0        2.580756    0.000000    2.690000
      8          6           0        3.836493    0.000000    1.965000
      9          8           0        3.836493    0.000000    0.765000
     10          1           0        4.702518    0.000000    2.465000
 ---------------------------------------------------------------------
                    Distance matrix (angstroms):
                    1          2          3          4          5
     1  C    0.000000
     2  O    1.200000   0.000000
     3  O    1.450000   2.298369   0.000000
     4  H    1.000000   1.907878   2.133659   0.000000
     5  H    2.117522   2.547136   0.980000   2.982264   0.000000
     6  H    2.800000   2.000000   2.963528   3.746999   2.463311
     7  O    3.727788   2.980000   3.663045   4.696424   2.963528
     8  C    4.310441   3.912020   3.727788   5.309416   2.800000
     9  O    3.912020   3.861075   2.980000   4.869692   2.000000
    10  H    5.309416   4.869692   4.696424   6.308716   3.746999
                    6          7          8          9         10
     6  H    0.000000
     7  O    0.980000   0.000000
     8  C    2.117522   1.450000   0.000000
     9  O    2.547136   2.298369   1.200000   0.000000
    10  H    2.982264   2.133659   1.000000   1.907878   0.000000
 Stoichiometry    C2H4O4
 Framework group  C2H[SGH(C2H4O4)]
 Deg. of freedom     9
 Full point group                 C2H     NOp   4
 Largest Abelian subgroup         C2H     NOp   4
 Largest concise Abelian subgroup C2      NOp   2
                         Standard orientation:                         
 ---------------------------------------------------------------------
 Center     Atomic      Atomic             Coordinates (Angstroms)
 Number     Number       Type             X           Y           Z
 ---------------------------------------------------------------------
      1          6           0        0.588416    2.073341    0.000000
      2          8           0       -0.588416    1.838679    0.000000
      3          8           0        1.544980    0.983622    0.000000
      4          1           0        0.909411    3.020422    0.000000
      5          1           0        1.230405    0.055483    0.000000
      6          1           0       -1.230405   -0.055483    0.000000
      7          8           0       -1.544980   -0.983622    0.000000
      8          6           0       -0.588416   -2.073341    0.000000
      9          8           0        0.588416   -1.838679    0.000000
     10          1           0       -0.909411   -3.020422    0.000000
 ---------------------------------------------------------------------
 Rotational constants (GHZ):      5.8300176      1.8414820      1.3994490
 Standard basis: STO-3G (5D, 7F)
 There are    14 symmetry adapted basis functions of AG  symmetry.
 There are     3 symmetry adapted basis functions of BG  symmetry.
 There are     3 symmetry adapted basis functions of AU  symmetry.
 There are    14 symmetry adapted basis functions of BU  symmetry.
 Integral buffers will be    131072 words long.
 Raffenetti 1 integral format.
 Two-electron integral symmetry is turned on.
    34 basis functions,   102 primitive gaussians,    34 cartesian basis functions
    24 alpha electrons       24 beta electrons
       nuclear repulsion energy       223.3707666458 Hartrees.
 NAtoms=   10 NActive=   10 NUniq=    5 SFac= 4.00D+00 NAtFMM=   60 NAOKFM=F Big=F
 One-electron integrals computed using PRISM.
 NBasis=    34 RedAO= T  NBF=    14     3     3    14
 NBsUse=    34 1.00D-06 NBFU=    14     3     3    14
 Harris functional with IExCor=  205 diagonalized for initial guess.
 ExpMin= 1.69D-01 ExpMax= 1.31D+02 ExpMxC= 1.31D+02 IAcc=1 IRadAn=         1 AccDes= 0.00D+00
 HarFok:  IExCor=  205 AccDes= 0.00D+00 IRadAn=         1 IDoV= 1
 ScaDFX=  1.000000  1.000000  1.000000  1.000000
 FoFCou: FMM=F IPFlag=           0 FMFlag=      100000 FMFlg1=           0
         NFxFlg=           0 DoJE=T BraDBF=F KetDBF=T FulRan=T
         Omega=  0.000000  0.000000  1.000000  0.000000  0.000000 ICntrl=     500 IOpCl=  0
         NMat0=    1 NMatS0=    1 NMatT0=    0 NMatD0=    1 NMtDS0=    0 NMtDT0=    0
         I1Cent=           4 NGrid=           0.
 Petite list used in FoFCou.
 Initial guess orbital symmetries:
       Occupied  (AG) (BU) (BU) (AG) (AG) (BU) (AG) (BU) (BU) (AG)
                 (AG) (BU) (BU) (AG) (BU) (AG) (AU) (BG) (AG) (BU)
                 (BG) (AU) (AG) (BU)
       Virtual   (AU) (BG) (BU) (AG) (AG) (BU) (BU) (AG) (AG) (BU)
 The electronic state of the initial guess is 1-AG.
 Requested convergence on RMS density matrix=1.00D-08 within 128 cycles.
 Requested convergence on MAX density matrix=1.00D-06.
 Requested convergence on             energy=1.00D-06.
 No special actions if energy rises.
 Keep R1 ints in memory in canonical form, NReq=999498.
 SCF Done:  E(RHF) =  -372.386394336     A.U. after   12 cycles
             Convg  =    0.3825D-08             -V/T =  2.0083

 **********************************************************************

            Population analysis using the SCF density.

 **********************************************************************

 Orbital symmetries:
       Occupied  (AG) (BU) (BU) (AG) (AG) (BU) (AG) (BU) (BU) (AG)
                 (AG) (BU) (BU) (AG) (BU) (AG) (AU) (BG) (AG) (BU)
                 (BU) (BG) (AG) (AU)
       Virtual   (AU) (BG) (BU) (AG) (AG) (BU) (AG) (BU) (AG) (BU)
 The electronic state is 1-AG.
 Alpha  occ. eigenvalues --  -20.30100 -20.30100 -20.26769 -20.26767 -11.19246
 Alpha  occ. eigenvalues --  -11.19246  -1.38651  -1.38191  -1.26361  -1.25856
 Alpha  occ. eigenvalues --   -0.83842  -0.82176  -0.66812  -0.65018  -0.60178
 Alpha  occ. eigenvalues --   -0.57600  -0.52479  -0.52354  -0.48885  -0.43261
 Alpha  occ. eigenvalues --   -0.36405  -0.36343  -0.36208  -0.36200
 Alpha virt. eigenvalues --    0.28247   0.28288   0.50075   0.50214   0.69661
 Alpha virt. eigenvalues --    0.72606   0.80103   0.80179   0.93219   0.95918
          Condensed to atoms (all electrons):
              1          2          3          4          5          6
     1  C    4.683832   0.441895   0.277058   0.388256  -0.030202  -0.001364
     2  O    0.441895   7.854530  -0.019305  -0.029085   0.000351   0.009231
     3  O    0.277058  -0.019305   7.829569  -0.019836   0.259374  -0.000405
     4  H    0.388256  -0.029085  -0.019836   0.555297   0.002345   0.000079
     5  H   -0.030202   0.000351   0.259374   0.002345   0.521503   0.000709
     6  H   -0.001364   0.009231  -0.000405   0.000079   0.000709   0.521503
     7  O    0.000046  -0.001190   0.000002  -0.000002  -0.000405   0.259374
     8  C    0.000001   0.000034   0.000046   0.000000  -0.001364  -0.030202
     9  O    0.000034  -0.000003  -0.001190  -0.000001   0.009231   0.000351
    10  H    0.000000  -0.000001  -0.000002   0.000000   0.000079   0.002345
              7          8          9         10
     1  C    0.000046   0.000001   0.000034   0.000000
     2  O   -0.001190   0.000034  -0.000003  -0.000001
     3  O    0.000002   0.000046  -0.001190  -0.000002
     4  H   -0.000002   0.000000  -0.000001   0.000000
     5  H   -0.000405  -0.001364   0.009231   0.000079
     6  H    0.259374  -0.030202   0.000351   0.002345
     7  O    7.829569   0.277058  -0.019305  -0.019836
     8  C    0.277058   4.683832   0.441895   0.388256
     9  O   -0.019305   0.441895   7.854530  -0.029085
    10  H   -0.019836   0.388256  -0.029085   0.555297
 Mulliken atomic charges:
              1
     1  C    0.240444
     2  O   -0.256457
     3  O   -0.325312
     4  H    0.102947
     5  H    0.238378
     6  H    0.238378
     7  O   -0.325312
     8  C    0.240444
     9  O   -0.256457
    10  H    0.102947
 Sum of Mulliken atomic charges =   0.00000
 Mulliken charges with hydrogens summed into heavy atoms:
              1
     1  C    0.343391
     2  O   -0.256457
     3  O   -0.086934
     7  O   -0.086934
     8  C    0.343391
     9  O   -0.256457
 Sum of Mulliken charges with hydrogens summed into heavy atoms =   0.00000
 Electronic spatial extent (au):  <R**2>=            753.9426
 Charge=              0.0000 electrons
 Dipole moment (field-independent basis, Debye):
    X=              0.0000    Y=              0.0000    Z=              0.0000  Tot=              0.0000
 Quadrupole moment (field-independent basis, Debye-Ang):
   XX=            -38.0611   YY=            -24.3631   ZZ=            -29.5507
   XY=              2.6297   XZ=              0.0000   YZ=              0.0000
 Traceless Quadrupole moment (field-independent basis, Debye-Ang):
   XX=             -7.4028   YY=              6.2952   ZZ=              1.1076
   XY=              2.6297   XZ=              0.0000   YZ=              0.0000
 Octapole moment (field-independent basis, Debye-Ang**2):
  XXX=              0.0000  YYY=              0.0000  ZZZ=              0.0000  XYY=              0.0000
  XXY=              0.0000  XXZ=              0.0000  XZZ=              0.0000  YZZ=              0.0000
  YYZ=              0.0000  XYZ=              0.0000
 Hexadecapole moment (field-independent basis, Debye-Ang**3):
 XXXX=           -234.9740 YYYY=           -499.5238 ZZZZ=            -17.5436 XXXY=            -75.8546
 XXXZ=              0.0000 YYYX=            -18.8031 YYYZ=              0.0000 ZZZX=              0.0000
 ZZZY=              0.0000 XXYY=           -139.2302 XXZZ=            -37.7628 YYZZ=            -96.8478
 XXYZ=              0.0000 YYXZ=              0.0000 ZZXY=            -20.7206
 N-N= 2.233707666458D+02 E-N=-1.328061874315D+03  KE= 3.693285276265D+02
 Symmetry AG   KE= 1.759840094162D+02
 Symmetry BG   KE= 8.576671608710D+00
 Symmetry AU   KE= 8.579204453576D+00
 Symmetry BU   KE= 1.761886421480D+02
 Calling FoFJK, ICntrl=      2127 FMM=F ISym2X=1 I1Cent= 0 IOpClX= 0 NMat=1 NMatS=1 NMatT=0.
 ***** Axes restored to original set *****
 -------------------------------------------------------------------
 Center     Atomic                   Forces (Hartrees/Bohr)
 Number     Number              X              Y              Z
 -------------------------------------------------------------------
      1        6           0.174938112    0.000000000    0.037494085
      2        8           0.005084909    0.000000000    0.052983579
      3        8          -0.076373202    0.000000000   -0.041920011
      4        1          -0.084749659    0.000000000   -0.083492762
      5        1          -0.006982240    0.000000000    0.038122676
      6        1           0.006982240    0.000000000   -0.038122676
      7        8           0.076373202    0.000000000    0.041920011
      8        6          -0.174938112    0.000000000   -0.037494085
      9        8          -0.005084909    0.000000000   -0.052983579
     10        1           0.084749659    0.000000000    0.083492762
 -------------------------------------------------------------------
 Cartesian Forces:  Max     0.174938112 RMS     0.062229711

 GradGradGradGradGradGradGradGradGradGradGradGradGradGradGradGradGradGrad
 Berny optimization.
 Internal  Forces:  Max     0.115141738 RMS     0.041022646
 Search for a local minimum.
 Step number   1 out of a maximum of   44
 All quantities printed in internal units (Hartrees-Bohrs-Radians)
 Mixed Optimization -- RFO/linear search
 Second derivative matrix not updated -- first step.
 ITU=  0
     Eigenvalues ---    0.00441   0.00656   0.01118   0.02084   0.02679
     Eigenvalues ---    0.03060   0.03259   0.03468   0.04307   0.05213
     Eigenvalues ---    0.07309   0.16000   0.16000   0.16000   0.19535
     Eigenvalues ---    0.20620   0.37261   0.38245   0.47688   0.47688
     Eigenvalues ---    0.49014   0.51385   1.01179   1.04823
 RFO step:  Lambda=-1.20887342D-01 EMin= 4.40828189D-03
 Linear search not attempted -- first point.
 Maximum step size (   0.300) exceeded in Quadratic search.
    -- Step size scaled by   0.547
 Iteration  1 RMS(Cart)=  0.06414661 RMS(Int)=  0.00198936
 Iteration  2 RMS(Cart)=  0.00231854 RMS(Int)=  0.00000304
 Iteration  3 RMS(Cart)=  0.00000285 RMS(Int)=  0.00000235
 Iteration  4 RMS(Cart)=  0.00000000 RMS(Int)=  0.00000235
 ClnCor:  largest displacement from symmetrization is 1.91D-03 for atom     6.
 Variable       Old X    -DE/DX   Delta X   Delta X   Delta X     New X
                                 (Linear)    (Quad)   (Total)
    R1        2.26767   0.05139   0.00000   0.02404   0.02404   2.29171
    R2        2.74010  -0.07465   0.00000  -0.08115  -0.08115   2.65896
    R3        1.88973   0.11514   0.00000   0.10531   0.10531   1.99503
    R4        3.77945  -0.00596   0.00000  -0.01959  -0.01978   3.75967
    R5        1.85193   0.00706   0.00000   0.00601   0.00601   1.85794
    R6        3.77945  -0.00596   0.00000  -0.02014  -0.01978   3.75967
    R7        1.85193   0.00706   0.00000   0.00615   0.00601   1.85794
    R8        2.74010  -0.07465   0.00000  -0.08103  -0.08115   2.65896
    R9        2.26767   0.05139   0.00000   0.02402   0.02404   2.29171
   R10        1.88973   0.11514   0.00000   0.10531   0.10531   1.99503
    A1        2.09440   0.03154   0.00000   0.04883   0.04882   2.14322
    A2        2.09440   0.01251   0.00000   0.03063   0.03064   2.12503
    A3        2.09440  -0.04405   0.00000  -0.07946  -0.07946   2.01494
    A4        2.09440   0.01704   0.00000   0.03033   0.02981   2.12421
    A5        2.09440  -0.05957   0.00000  -0.11947  -0.11947   1.97493
    A6        2.09440  -0.05957   0.00000  -0.11860  -0.11947   1.97493
    A7        2.09440   0.03154   0.00000   0.04894   0.04882   2.14322
    A8        2.09440  -0.04405   0.00000  -0.07952  -0.07946   2.01494
    A9        2.09440   0.01251   0.00000   0.03058   0.03064   2.12503
   A10        2.09440   0.01704   0.00000   0.02984   0.02981   2.12421
   A11        3.14159   0.01100   0.00000   0.04092   0.04083   3.18242
   A12        3.14159   0.01100   0.00000   0.03923   0.04083   3.18242
   A13        3.14159   0.00000   0.00000   0.00000   0.00000   3.14159
   A14        3.14159   0.00000   0.00000   0.00000   0.00000   3.14159
    D1        0.00000   0.00000   0.00000   0.00000   0.00000   0.00000
    D2        3.14159   0.00000   0.00000   0.00000   0.00000   3.14159
    D3        0.00000   0.00000   0.00000   0.00000   0.00000   0.00000
    D4        3.14159   0.00000   0.00000   0.00000   0.00000   3.14159
    D5        0.00000   0.00000   0.00000   0.00000   0.00000   0.00000
    D6        0.00000   0.00000   0.00000   0.00000   0.00000   0.00000
    D7        0.00000   0.00000   0.00000   0.00000   0.00000   0.00000
    D8        3.14159   0.00000   0.00000   0.00000   0.00000   3.14159
    D9        0.00000   0.00000   0.00000   0.00000   0.00000   0.00000
   D10        3.14159   0.00000   0.00000   0.00000   0.00000   3.14159
         Item               Value     Threshold  Converged?
 Maximum Force            0.115142     0.000450     NO 
 RMS     Force            0.041023     0.000300     NO 
 Maximum Displacement     0.147466     0.001800     NO 
 RMS     Displacement     0.064467     0.001200     NO 
 Predicted change in Energy=-5.350925D-02
 GradGradGradGradGradGradGradGradGradGradGradGradGradGradGradGradGradGrad

                          Input orientation:                          
 ---------------------------------------------------------------------
 Center     Atomic      Atomic             Coordinates (Angstroms)
 Number     Number       Type             X           Y           Z
 ---------------------------------------------------------------------
      1          6           0        0.050525    0.000000    0.001261
      2          8           0        0.078035    0.000000    1.213671
      3          8           0        1.215693    0.000000   -0.787535
      4          1           0       -0.859536    0.000000   -0.533852
      5          1           0        2.042607    0.000000   -0.255692
      6          1           0        1.793885    0.000000    2.220692
      7          8           0        2.620800    0.000000    2.752535
      8          6           0        3.785968    0.000000    1.963739
      9          8           0        3.758457    0.000000    0.751329
     10          1           0        4.696029    0.000000    2.498852
 ---------------------------------------------------------------------
                    Distance matrix (angstroms):
                    1          2          3          4          5
     1  C    0.000000
     2  O    1.212722   0.000000
     3  O    1.407059   2.301975   0.000000
     4  H    1.055726   1.983149   2.090677   0.000000
     5  H    2.008586   2.453278   0.983181   2.915443   0.000000
     6  H    2.822265   1.989530   3.063289   3.824678   2.488844
     7  O    3.765079   2.972163   3.808729   4.786761   3.063289
     8  C    4.219579   3.783036   3.765079   5.274340   2.822265
     9  O    3.783036   3.709348   2.972163   4.793491   1.989530
    10  H    5.274340   4.793491   4.786761   6.329423   3.824678
                    6          7          8          9         10
     6  H    0.000000
     7  O    0.983181   0.000000
     8  C    2.008586   1.407059   0.000000
     9  O    2.453278   2.301975   1.212722   0.000000
    10  H    2.915443   2.090677   1.055726   1.983149   0.000000
 Stoichiometry    C2H4O4
 Framework group  C2H[SGH(C2H4O4)]
 Deg. of freedom     9
 Full point group                 C2H     NOp   4
 Largest Abelian subgroup         C2H     NOp   4
 Largest concise Abelian subgroup C2      NOp   2
                         Standard orientation:                         
 ---------------------------------------------------------------------
 Center     Atomic      Atomic             Coordinates (Angstroms)
 Number     Number       Type             X           Y           Z
 ---------------------------------------------------------------------
      1          6           0        0.591443    2.025193    0.000000
      2          8           0       -0.591443    1.757843    0.000000
      3          8           0        1.595599    1.039553    0.000000
      4          1           0        0.935494    3.023285    0.000000
      5          1           0        1.238268    0.123606    0.000000
      6          1           0       -1.238268   -0.123606    0.000000
      7          8           0       -1.595599   -1.039553    0.000000
      8          6           0       -0.591443   -2.025193    0.000000
      9          8           0        0.591443   -1.757843    0.000000
     10          1           0       -0.935494   -3.023285    0.000000
 ---------------------------------------------------------------------
 Rotational constants (GHZ):      5.7698054      1.8815207      1.4188401
 Standard basis: STO-3G (5D, 7F)
 There are    14 symmetry adapted basis functions of AG  symmetry.
 There are     3 symmetry adapted basis functions of BG  symmetry.
 There are     3 symmetry adapted basis functions of AU  symmetry.
 There are    14 symmetry adapted basis functions of BU  symmetry.
 Integral buffers will be    131072 words long.
 Raffenetti 1 integral format.
 Two-electron integral symmetry is turned on.
    34 basis functions,   102 primitive gaussians,    34 cartesian basis functions
    24 alpha electrons       24 beta electrons
       nuclear repulsion energy       224.1703708594 Hartrees.
 NAtoms=   10 NActive=   10 NUniq=    5 SFac= 4.00D+00 NAtFMM=   60 NAOKFM=F Big=F
 One-electron integrals computed using PRISM.
 NBasis=    34 RedAO= T  NBF=    14     3     3    14
 NBsUse=    34 1.00D-06 NBFU=    14     3     3    14
 Initial guess read from the read-write file.
 B after Tr=     0.000000    0.000000    0.000000
         Rot=    1.000000    0.000000    0.000000    0.000000 Ang=   0.00 deg.
 Initial guess orbital symmetries:
       Occupied  (AG) (BU) (BU) (AG) (AG) (BU) (AG) (BU) (BU) (AG)
                 (AG) (BU) (BU) (AG) (BU) (AG) (AU) (BG) (AG) (BU)
                 (BU) (BG) (AG) (AU)
       Virtual   (AU) (BG) (BU) (AG) (AG) (BU) (AG) (BU) (AG) (BU)
 Harris functional with IExCor=  205 diagonalized for initial guess.
 ExpMin= 1.69D-01 ExpMax= 1.31D+02 ExpMxC= 1.31D+02 IAcc=1 IRadAn=         1 AccDes= 0.00D+00
 HarFok:  IExCor=  205 AccDes= 0.00D+00 IRadAn=         1 IDoV= 1
 ScaDFX=  1.000000  1.000000  1.000000  1.000000
 FoFCou: FMM=F IPFlag=           0 FMFlag=      100000 FMFlg1=           0
         NFxFlg=           0 DoJE=T BraDBF=F KetDBF=T FulRan=T
         Omega=  0.000000  0.000000  1.000000  0.000000  0.000000 ICntrl=     500 IOpCl=  0
         NMat0=    1 NMatS0=    1 NMatT0=    0 NMatD0=    1 NMtDS0=    0 NMtDT0=    0
         I1Cent=           4 NGrid=           0.
 Petite list used in FoFCou.
 Requested convergence on RMS density matrix=1.00D-08 within 128 cycles.
 Requested convergence on MAX density matrix=1.00D-06.
 Requested convergence on             energy=1.00D-06.
 No special actions if energy rises.
 Keep R1 ints in memory in canonical form, NReq=999498.
 SCF Done:  E(RHF) =  -372.435173526     A.U. after   11 cycles
             Convg  =    0.3405D-08             -V/T =  2.0087
 Calling FoFJK, ICntrl=      2127 FMM=F ISym2X=1 I1Cent= 0 IOpClX= 0 NMat=1 NMatS=1 NMatT=0.
 ***** Axes restored to original set *****
 -------------------------------------------------------------------
 Center     Atomic                   Forces (Hartrees/Bohr)
 Number     Number              X              Y              Z
 -------------------------------------------------------------------
      1        6           0.076052279    0.000000000    0.018103613
      2        8           0.009012292    0.000000000    0.020492483
      3        8          -0.040330826    0.000000000   -0.019559850
      4        1          -0.031859859    0.000000000   -0.036816842
      5        1          -0.000008264    0.000000000    0.021533057
      6        1           0.000008264    0.000000000   -0.021533057
      7        8           0.040330826    0.000000000    0.019559850
      8        6          -0.076052279    0.000000000   -0.018103613
      9        8          -0.009012292    0.000000000   -0.020492483
     10        1           0.031859859    0.000000000    0.036816842
 -------------------------------------------------------------------
 Cartesian Forces:  Max     0.076052279 RMS     0.027635990

 GradGradGradGradGradGradGradGradGradGradGradGradGradGradGradGradGradGrad
 Berny optimization.
 Using GEDIIS/GDIIS optimizer.
 Internal  Forces:  Max     0.046125224 RMS     0.018840382
 Search for a local minimum.
 Step number   2 out of a maximum of   44
 All quantities printed in internal units (Hartrees-Bohrs-Radians)
 Mixed Optimization -- RFO/linear search
 Update second derivatives using D2CorX and points    1    2
 DE= -4.88D-02 DEPred=-5.35D-02 R= 9.12D-01
 SS=  1.41D+00  RLast= 3.00D-01 DXNew= 5.0454D-01 9.0144D-01
 Trust test= 9.12D-01 RLast= 3.00D-01 DXMaxT set to 5.05D-01
 ITU=  1  0
 Use linear search instead of GDIIS.
     Eigenvalues ---    0.00427   0.00620   0.01136   0.02187   0.02780
     Eigenvalues ---    0.03122   0.03284   0.03469   0.04290   0.05357
     Eigenvalues ---    0.07204   0.15996   0.16000   0.16958   0.19574
     Eigenvalues ---    0.21997   0.37375   0.37909   0.47688   0.48938
     Eigenvalues ---    0.51276   0.56208   1.00898   1.06260
 RFO step:  Lambda=-5.38780550D-03 EMin= 4.27126852D-03
 Quartic linear search produced a step of  0.93220.
 Iteration  1 RMS(Cart)=  0.09363226 RMS(Int)=  0.00337576
 Iteration  2 RMS(Cart)=  0.00412383 RMS(Int)=  0.00000614
 Iteration  3 RMS(Cart)=  0.00000841 RMS(Int)=  0.00000239
 Iteration  4 RMS(Cart)=  0.00000000 RMS(Int)=  0.00000239
 ClnCor:  largest displacement from symmetrization is 1.50D-03 for atom     6.
 Variable       Old X    -DE/DX   Delta X   Delta X   Delta X     New X
                                 (Linear)    (Quad)   (Total)
    R1        2.29171   0.01867   0.02241  -0.01066   0.01175   2.30346
    R2        2.65896  -0.03879  -0.07564  -0.01673  -0.09238   2.56658
    R3        1.99503   0.04613   0.09817  -0.03434   0.06383   2.05886
    R4        3.75967  -0.00650  -0.01844  -0.14758  -0.16628   3.59338
    R5        1.85794   0.00522   0.00560   0.00688   0.01249   1.87043
    R6        3.75967  -0.00650  -0.01844  -0.14829  -0.16628   3.59338
    R7        1.85794   0.00522   0.00560   0.00695   0.01249   1.87043
    R8        2.65896  -0.03879  -0.07564  -0.01667  -0.09238   2.56658
    R9        2.29171   0.01867   0.02241  -0.01067   0.01175   2.30346
   R10        1.99503   0.04613   0.09817  -0.03434   0.06383   2.05886
    A1        2.14322   0.01479   0.04551  -0.00247   0.04304   2.18626
    A2        2.12503   0.00816   0.02856   0.02703   0.05559   2.18062
    A3        2.01494  -0.02294  -0.07407  -0.02456  -0.09863   1.91631
    A4        2.12421   0.01157   0.02779   0.03855   0.06593   2.19014
    A5        1.97493  -0.03178  -0.11137  -0.04607  -0.15743   1.81750
    A6        1.97493  -0.03178  -0.11137  -0.04546  -0.15743   1.81750
    A7        2.14322   0.01479   0.04551  -0.00239   0.04304   2.18626
    A8        2.01494  -0.02294  -0.07407  -0.02460  -0.09863   1.91631
    A9        2.12503   0.00816   0.02856   0.02698   0.05559   2.18062
   A10        2.12421   0.01157   0.02779   0.03826   0.06593   2.19014
   A11        3.18242   0.00542   0.03806   0.01044   0.04846   3.23088
   A12        3.18242   0.00542   0.03806   0.00914   0.04846   3.23088
   A13        3.14159   0.00000   0.00000   0.00000   0.00000   3.14159
   A14        3.14159   0.00000   0.00000   0.00000   0.00000   3.14159
    D1        0.00000   0.00000   0.00000   0.00000   0.00000   0.00000
    D2        3.14159   0.00000   0.00000   0.00000   0.00000   3.14159
    D3        0.00000   0.00000   0.00000   0.00000   0.00000   0.00000
    D4        3.14159   0.00000   0.00000   0.00000   0.00000   3.14159
    D5        0.00000   0.00000   0.00000   0.00000   0.00000   0.00000
    D6        0.00000   0.00000   0.00000   0.00000   0.00000   0.00000
    D7        0.00000   0.00000   0.00000   0.00000   0.00000   0.00000
    D8        3.14159   0.00000   0.00000   0.00000   0.00000   3.14159
    D9        0.00000   0.00000   0.00000   0.00000   0.00000   0.00000
   D10        3.14159   0.00000   0.00000   0.00000   0.00000   3.14159
         Item               Value     Threshold  Converged?
 Maximum Force            0.046125     0.000450     NO 
 RMS     Force            0.018840     0.000300     NO 
 Maximum Displacement     0.282930     0.001800     NO 
 RMS     Displacement     0.094194     0.001200     NO 
 Predicted change in Energy=-1.704819D-02
 GradGradGradGradGradGradGradGradGradGradGradGradGradGradGradGradGradGrad

                          Input orientation:                          
 ---------------------------------------------------------------------
 Center     Atomic      Atomic             Coordinates (Angstroms)
 Number     Number       Type             X           Y           Z
 ---------------------------------------------------------------------
      1          6           0        0.138515    0.000000    0.018806
      2          8           0        0.227756    0.000000    1.234474
      3          8           0        1.187091    0.000000   -0.844403
      4          1           0       -0.797892    0.000000   -0.538112
      5          1           0        1.983732    0.000000   -0.256999
      6          1           0        1.852760    0.000000    2.221999
      7          8           0        2.649401    0.000000    2.809403
      8          6           0        3.697977    0.000000    1.946194
      9          8           0        3.608737    0.000000    0.730526
     10          1           0        4.634385    0.000000    2.503112
 ---------------------------------------------------------------------
                    Distance matrix (angstroms):
                    1          2          3          4          5
     1  C    0.000000
     2  O    1.218939   0.000000
     3  O    1.358175   2.289553   0.000000
     4  H    1.089503   2.047929   2.008475   0.000000
     5  H    1.865715   2.303898   0.989788   2.795793   0.000000
     6  H    2.791539   1.901537   3.137823   3.826770   2.482455
     7  O    3.753928   2.888731   3.935561   4.805173   3.137823
     8  C    4.047788   3.542454   3.753928   5.136596   2.791539
     9  O    3.542454   3.418332   2.888731   4.585610   1.901537
    10  H    5.136596   4.585610   4.805173   6.225647   3.826770
                    6          7          8          9         10
     6  H    0.000000
     7  O    0.989788   0.000000
     8  C    1.865715   1.358175   0.000000
     9  O    2.303898   2.289553   1.218939   0.000000
    10  H    2.795793   2.008475   1.089503   2.047929   0.000000
 Stoichiometry    C2H4O4
 Framework group  C2H[SGH(C2H4O4)]
 Deg. of freedom     9
 Full point group                 C2H     NOp   4
 Largest Abelian subgroup         C2H     NOp   4
 Largest concise Abelian subgroup C2      NOp   2
                         Standard orientation:                         
 ---------------------------------------------------------------------
 Center     Atomic      Atomic             Coordinates (Angstroms)
 Number     Number       Type             X           Y           Z
 ---------------------------------------------------------------------
      1          6           0       -0.162433    2.017365    0.000000
      2          8           0       -1.132883    1.279776    0.000000
      3          8           0        1.132883    1.608955    0.000000
      4          1           0       -0.206091    3.105994    0.000000
      5          1           0        1.074784    0.620874    0.000000
      6          1           0       -1.074784   -0.620874    0.000000
      7          8           0       -1.132883   -1.608955    0.000000
      8          6           0        0.162433   -2.017365    0.000000
      9          8           0        1.132883   -1.279776    0.000000
     10          1           0        0.206091   -3.105994    0.000000
 ---------------------------------------------------------------------
 Rotational constants (GHZ):      5.9414983      1.9959301      1.4940375
 Standard basis: STO-3G (5D, 7F)
 There are    14 symmetry adapted basis functions of AG  symmetry.
 There are     3 symmetry adapted basis functions of BG  symmetry.
 There are     3 symmetry adapted basis functions of AU  symmetry.
 There are    14 symmetry adapted basis functions of BU  symmetry.
 Integral buffers will be    131072 words long.
 Raffenetti 1 integral format.
 Two-electron integral symmetry is turned on.
    34 basis functions,   102 primitive gaussians,    34 cartesian basis functions
    24 alpha electrons       24 beta electrons
       nuclear repulsion energy       228.2400323732 Hartrees.
 NAtoms=   10 NActive=   10 NUniq=    5 SFac= 4.00D+00 NAtFMM=   60 NAOKFM=F Big=F
 One-electron integrals computed using PRISM.
 NBasis=    34 RedAO= T  NBF=    14     3     3    14
 NBsUse=    34 1.00D-06 NBFU=    14     3     3    14
 Initial guess read from the read-write file.
 B after Tr=     0.000000    0.000000    0.000000
         Rot=    1.000000    0.000000    0.000000    0.000000 Ang=   0.00 deg.
 Initial guess orbital symmetries:
       Occupied  (BU) (AG) (AG) (BU) (AG) (BU) (AG) (BU) (BU) (AG)
                 (AG) (BU) (BU) (AG) (BU) (AG) (AU) (BG) (AG) (BU)
                 (AG) (BG) (BU) (AU)
       Virtual   (AU) (BG) (AG) (BU) (AG) (BU) (AG) (BU) (AG) (BU)
 Harris functional with IExCor=  205 diagonalized for initial guess.
 ExpMin= 1.69D-01 ExpMax= 1.31D+02 ExpMxC= 1.31D+02 IAcc=1 IRadAn=         1 AccDes= 0.00D+00
 HarFok:  IExCor=  205 AccDes= 0.00D+00 IRadAn=         1 IDoV= 1
 ScaDFX=  1.000000  1.000000  1.000000  1.000000
 FoFCou: FMM=F IPFlag=           0 FMFlag=      100000 FMFlg1=           0
         NFxFlg=           0 DoJE=T BraDBF=F KetDBF=T FulRan=T
         Omega=  0.000000  0.000000  1.000000  0.000000  0.000000 ICntrl=     500 IOpCl=  0
         NMat0=    1 NMatS0=    1 NMatT0=    0 NMatD0=    1 NMtDS0=    0 NMtDT0=    0
         I1Cent=           4 NGrid=           0.
 Petite list used in FoFCou.
 Requested convergence on RMS density matrix=1.00D-08 within 128 cycles.
 Requested convergence on MAX density matrix=1.00D-06.
 Requested convergence on             energy=1.00D-06.
 No special actions if energy rises.
 Keep R1 ints in memory in canonical form, NReq=999498.
 SCF Done:  E(RHF) =  -372.450769368     A.U. after   12 cycles
             Convg  =    0.5752D-08             -V/T =  2.0085
 Calling FoFJK, ICntrl=      2127 FMM=F ISym2X=1 I1Cent= 0 IOpClX= 0 NMat=1 NMatS=1 NMatT=0.
 ***** Axes restored to original set *****
 -------------------------------------------------------------------
 Center     Atomic                   Forces (Hartrees/Bohr)
 Number     Number              X              Y              Z
 -------------------------------------------------------------------
      1        6          -0.007743170    0.000000000    0.004205107
      2        8           0.009631766    0.000000000    0.006043460
      3        8           0.012127576    0.000000000    0.001566779
      4        1          -0.013969082    0.000000000   -0.004121599
      5        1           0.013595001    0.000000000   -0.003439492
      6        1          -0.013595001    0.000000000    0.003439492
      7        8          -0.012127576    0.000000000   -0.001566779
      8        6           0.007743170    0.000000000   -0.004205107
      9        8          -0.009631766    0.000000000   -0.006043460
     10        1           0.013969082    0.000000000    0.004121599
 -------------------------------------------------------------------
 Cartesian Forces:  Max     0.013969082 RMS     0.007142566

 GradGradGradGradGradGradGradGradGradGradGradGradGradGradGradGradGradGrad
 Berny optimization.
 Using GEDIIS/GDIIS optimizer.
 Internal  Forces:  Max     0.017135037 RMS     0.006775197
 Search for a local minimum.
 Step number   3 out of a maximum of   44
 All quantities printed in internal units (Hartrees-Bohrs-Radians)
 Mixed Optimization -- RFO/linear search
 Update second derivatives using D2CorX and points    2    3
 DE= -1.56D-02 DEPred=-1.70D-02 R= 9.15D-01
 SS=  1.41D+00  RLast= 4.16D-01 DXNew= 8.4853D-01 1.2492D+00
 Trust test= 9.15D-01 RLast= 4.16D-01 DXMaxT set to 8.49D-01
 ITU=  1  1  0
 Use linear search instead of GDIIS.
     Eigenvalues ---    0.00414   0.00576   0.01155   0.02306   0.02909
     Eigenvalues ---    0.03209   0.03331   0.03446   0.03782   0.05475
     Eigenvalues ---    0.07097   0.15996   0.16000   0.17578   0.19577
     Eigenvalues ---    0.24271   0.37459   0.46671   0.47688   0.48743
     Eigenvalues ---    0.49011   0.52314   1.00296   1.05101
 RFO step:  Lambda=-5.58423238D-03 EMin= 4.14433979D-03
 Quartic linear search produced a step of -0.10709.
 Iteration  1 RMS(Cart)=  0.04298290 RMS(Int)=  0.00073971
 Iteration  2 RMS(Cart)=  0.00104922 RMS(Int)=  0.00003662
 Iteration  3 RMS(Cart)=  0.00000033 RMS(Int)=  0.00003662
 ClnCor:  largest displacement from symmetrization is 1.27D-02 for atom     6.
 Variable       Old X    -DE/DX   Delta X   Delta X   Delta X     New X
                                 (Linear)    (Quad)   (Total)
    R1        2.30346   0.00411  -0.00126   0.00794   0.00665   2.31011
    R2        2.56658   0.01714   0.00989   0.01152   0.02141   2.58799
    R3        2.05886   0.01411  -0.00684   0.04959   0.04276   2.10162
    R4        3.59338  -0.00693   0.01781  -0.17322  -0.15285   3.44054
    R5        1.87043   0.00215  -0.00134   0.00715   0.00585   1.87627
    R6        3.59338  -0.00693   0.01781  -0.16723  -0.15285   3.44054
    R7        1.87043   0.00215  -0.00134   0.00660   0.00585   1.87627
    R8        2.56658   0.01714   0.00989   0.01108   0.02141   2.58799
    R9        2.30346   0.00411  -0.00126   0.00804   0.00665   2.31011
   R10        2.05886   0.01411  -0.00684   0.04959   0.04276   2.10162
    A1        2.18626  -0.00582  -0.00461   0.00231  -0.00234   2.18392
    A2        2.18062  -0.00079  -0.00595   0.00312  -0.00281   2.17781
    A3        1.91631   0.00661   0.01056  -0.00543   0.00515   1.92146
    A4        2.19014   0.00077  -0.00706   0.04105   0.03748   2.22762
    A5        1.81750   0.01047   0.01686   0.02847   0.04537   1.86287
    A6        1.81750   0.01047   0.01686   0.02315   0.04537   1.86287
    A7        2.18626  -0.00582  -0.00461   0.00160  -0.00234   2.18392
    A8        1.91631   0.00661   0.01056  -0.00508   0.00515   1.92146
    A9        2.18062  -0.00079  -0.00595   0.00348  -0.00281   2.17781
   A10        2.19014   0.00077  -0.00706   0.04352   0.03748   2.22762
   A11        3.23088  -0.00543  -0.00519  -0.07576  -0.08052   3.15036
   A12        3.23088  -0.00543  -0.00519  -0.06434  -0.08052   3.15036
   A13        3.14159   0.00000   0.00000   0.00000   0.00000   3.14159
   A14        3.14159   0.00000   0.00000   0.00000   0.00000   3.14159
    D1        0.00000   0.00000   0.00000   0.00000   0.00000   0.00000
    D2        3.14159   0.00000   0.00000   0.00000   0.00000   3.14159
    D3        0.00000   0.00000   0.00000   0.00000   0.00000   0.00000
    D4        3.14159   0.00000   0.00000   0.00000   0.00000   3.14159
    D5        0.00000   0.00000   0.00000   0.00000   0.00000   0.00000
    D6        0.00000   0.00000   0.00000   0.00000   0.00000   0.00000
    D7        0.00000   0.00000   0.00000   0.00000   0.00000   0.00000
    D8        3.14159   0.00000   0.00000   0.00000   0.00000   3.14159
    D9        0.00000   0.00000   0.00000   0.00000   0.00000   0.00000
   D10        3.14159   0.00000   0.00000   0.00000   0.00000   3.14159
         Item               Value     Threshold  Converged?
 Maximum Force            0.017135     0.000450     NO 
 RMS     Force            0.006775     0.000300     NO 
 Maximum Displacement     0.115967     0.001800     NO 
 RMS     Displacement     0.044356     0.001200     NO 
 Predicted change in Energy=-3.168622D-03
 GradGradGradGradGradGradGradGradGradGradGradGradGradGradGradGradGradGrad

                          Input orientation:                          
 ---------------------------------------------------------------------
 Center     Atomic      Atomic             Coordinates (Angstroms)
 Number     Number       Type             X           Y           Z
 ---------------------------------------------------------------------
      1          6           0        0.164604    0.000000    0.042302
      2          8           0        0.263967    0.000000    1.260714
      3          8           0        1.216899    0.000000   -0.834177
      4          1           0       -0.797392    0.000000   -0.515725
      5          1           0        2.045100    0.000000   -0.286548
      6          1           0        1.791393    0.000000    2.251548
      7          8           0        2.619593    0.000000    2.799177
      8          6           0        3.671888    0.000000    1.922698
      9          8           0        3.572525    0.000000    0.704286
     10          1           0        4.633885    0.000000    2.480725
 ---------------------------------------------------------------------
                    Distance matrix (angstroms):
                    1          2          3          4          5
     1  C    0.000000
     2  O    1.222457   0.000000
     3  O    1.369503   2.301445   0.000000
     4  H    1.112130   2.069353   2.039309   0.000000
     5  H    1.909032   2.359333   0.992881   2.851716   0.000000
     6  H    2.743575   1.820654   3.138748   3.789407   2.550744
     7  O    3.691521   2.813511   3.894715   4.760711   3.138748
     8  C    3.979563   3.471620   3.691521   5.091205   2.743575
     9  O    3.471620   3.355022   2.813511   4.537026   1.820654
    10  H    5.091205   4.537026   4.760711   6.203022   3.789407
                    6          7          8          9         10
     6  H    0.000000
     7  O    0.992881   0.000000
     8  C    1.909032   1.369503   0.000000
     9  O    2.359333   2.301445   1.222457   0.000000
    10  H    2.851716   2.039309   1.112130   2.069353   0.000000
 Stoichiometry    C2H4O4
 Framework group  C2H[SGH(C2H4O4)]
 Deg. of freedom     9
 Full point group                 C2H     NOp   4
 Largest Abelian subgroup         C2H     NOp   4
 Largest concise Abelian subgroup C2      NOp   2
                         Standard orientation:                         
 ---------------------------------------------------------------------
 Center     Atomic      Atomic             Coordinates (Angstroms)
 Number     Number       Type             X           Y           Z
 ---------------------------------------------------------------------
      1          6           0       -0.171728    1.982357    0.000000
      2          8           0       -1.137517    1.232923    0.000000
      3          8           0        1.137517    1.580588    0.000000
      4          1           0       -0.230548    3.092930    0.000000
      5          1           0        1.131882    0.587722    0.000000
      6          1           0       -1.131882   -0.587722    0.000000
      7          8           0       -1.137517   -1.580588    0.000000
      8          6           0        0.171728   -1.982357    0.000000
      9          8           0        1.137517   -1.232923    0.000000
     10          1           0        0.230548   -3.092930    0.000000
 ---------------------------------------------------------------------
 Rotational constants (GHZ):      5.8723515      2.0800801      1.5360033
 Standard basis: STO-3G (5D, 7F)
 There are    14 symmetry adapted basis functions of AG  symmetry.
 There are     3 symmetry adapted basis functions of BG  symmetry.
 There are     3 symmetry adapted basis functions of AU  symmetry.
 There are    14 symmetry adapted basis functions of BU  symmetry.
 Integral buffers will be    131072 words long.
 Raffenetti 1 integral format.
 Two-electron integral symmetry is turned on.
    34 basis functions,   102 primitive gaussians,    34 cartesian basis functions
    24 alpha electrons       24 beta electrons
       nuclear repulsion energy       229.0225918891 Hartrees.
 NAtoms=   10 NActive=   10 NUniq=    5 SFac= 4.00D+00 NAtFMM=   60 NAOKFM=F Big=F
 One-electron integrals computed using PRISM.
 NBasis=    34 RedAO= T  NBF=    14     3     3    14
 NBsUse=    34 1.00D-06 NBFU=    14     3     3    14
 Initial guess read from the read-write file.
 B after Tr=     0.000000    0.000000    0.000000
         Rot=    1.000000    0.000000    0.000000    0.000000 Ang=   0.00 deg.
 Initial guess orbital symmetries:
       Occupied  (BU) (AG) (AG) (BU) (AG) (BU) (AG) (BU) (BU) (AG)
                 (AG) (BU) (BU) (AG) (BU) (AG) (AU) (BG) (AG) (BU)
                 (AG) (BG) (AU) (BU)
       Virtual   (AU) (BG) (AG) (BU) (BU) (AG) (AG) (BU) (AG) (BU)
 Harris functional with IExCor=  205 diagonalized for initial guess.
 ExpMin= 1.69D-01 ExpMax= 1.31D+02 ExpMxC= 1.31D+02 IAcc=1 IRadAn=         1 AccDes= 0.00D+00
 HarFok:  IExCor=  205 AccDes= 0.00D+00 IRadAn=         1 IDoV= 1
 ScaDFX=  1.000000  1.000000  1.000000  1.000000
 FoFCou: FMM=F IPFlag=           0 FMFlag=      100000 FMFlg1=           0
         NFxFlg=           0 DoJE=T BraDBF=F KetDBF=T FulRan=T
         Omega=  0.000000  0.000000  1.000000  0.000000  0.000000 ICntrl=     500 IOpCl=  0
         NMat0=    1 NMatS0=    1 NMatT0=    0 NMatD0=    1 NMtDS0=    0 NMtDT0=    0
         I1Cent=           4 NGrid=           0.
 Petite list used in FoFCou.
 Requested convergence on RMS density matrix=1.00D-08 within 128 cycles.
 Requested convergence on MAX density matrix=1.00D-06.
 Requested convergence on             energy=1.00D-06.
 No special actions if energy rises.
 Keep R1 ints in memory in canonical form, NReq=999498.
 SCF Done:  E(RHF) =  -372.454740543     A.U. after   11 cycles
             Convg  =    0.2666D-08             -V/T =  2.0087
 Calling FoFJK, ICntrl=      2127 FMM=F ISym2X=1 I1Cent= 0 IOpClX= 0 NMat=1 NMatS=1 NMatT=0.
 ***** Axes restored to original set *****
 -------------------------------------------------------------------
 Center     Atomic                   Forces (Hartrees/Bohr)
 Number     Number              X              Y              Z
 -------------------------------------------------------------------
      1        6          -0.003320950    0.000000000   -0.004562948
      2        8           0.006539426    0.000000000    0.000032027
      3        8          -0.000247162    0.000000000    0.003041554
      4        1           0.003845548    0.000000000    0.005049458
      5        1           0.005731143    0.000000000    0.001994645
      6        1          -0.005731143    0.000000000   -0.001994645
      7        8           0.000247162    0.000000000   -0.003041554
      8        6           0.003320950    0.000000000    0.004562948
      9        8          -0.006539426    0.000000000   -0.000032027
     10        1          -0.003845548    0.000000000   -0.005049458
 -------------------------------------------------------------------
 Cartesian Forces:  Max     0.006539426 RMS     0.003276546

 GradGradGradGradGradGradGradGradGradGradGradGradGradGradGradGradGradGrad
 Berny optimization.
 Using GEDIIS/GDIIS optimizer.
 Internal  Forces:  Max     0.006775029 RMS     0.002598219
 Search for a local minimum.
 Step number   4 out of a maximum of   44
 All quantities printed in internal units (Hartrees-Bohrs-Radians)
 Mixed Optimization -- RFO/linear search
 Update second derivatives using D2CorX and points    2    3    4
 DE= -3.97D-03 DEPred=-3.17D-03 R= 1.25D+00
 SS=  1.41D+00  RLast= 2.67D-01 DXNew= 1.4270D+00 8.0178D-01
 Trust test= 1.25D+00 RLast= 2.67D-01 DXMaxT set to 8.49D-01
 ITU=  1  1  1  0
 Use linear search instead of GDIIS.
     Eigenvalues ---    0.00448   0.00606   0.01141   0.01596   0.02336
     Eigenvalues ---    0.02902   0.03240   0.03394   0.03528   0.05603
     Eigenvalues ---    0.07242   0.16000   0.16149   0.17667   0.19543
     Eigenvalues ---    0.24036   0.37437   0.47688   0.48833   0.49199
     Eigenvalues ---    0.52280   0.69601   1.00212   1.09590
 RFO step:  Lambda=-4.04606827D-03 EMin= 4.47674735D-03
 Quartic linear search produced a step of  0.41993.
 Iteration  1 RMS(Cart)=  0.06117749 RMS(Int)=  0.03045292
 Iteration  2 RMS(Cart)=  0.03444956 RMS(Int)=  0.00003371
 Iteration  3 RMS(Cart)=  0.00004936 RMS(Int)=  0.00000426
 Iteration  4 RMS(Cart)=  0.00000000 RMS(Int)=  0.00000426
 ClnCor:  largest displacement from symmetrization is 1.31D-03 for atom     6.
 Variable       Old X    -DE/DX   Delta X   Delta X   Delta X     New X
                                 (Linear)    (Quad)   (Total)
    R1        2.31011  -0.00271   0.00279   0.00084   0.00363   2.31374
    R2        2.58799  -0.00205   0.00899  -0.01665  -0.00766   2.58032
    R3        2.10162  -0.00586   0.01796   0.00826   0.02621   2.12783
    R4        3.44054  -0.00678  -0.06419  -0.25749  -0.32201   3.11853
    R5        1.87627  -0.00088   0.00245   0.00097   0.00342   1.87969
    R6        3.44054  -0.00678  -0.06419  -0.25816  -0.32201   3.11853
    R7        1.87627  -0.00088   0.00245   0.00103   0.00342   1.87969
    R8        2.58799  -0.00205   0.00899  -0.01661  -0.00766   2.58032
    R9        2.31011  -0.00271   0.00279   0.00083   0.00363   2.31374
   R10        2.10162  -0.00586   0.01796   0.00826   0.02621   2.12783
    A1        2.18392  -0.00078  -0.00098   0.00572   0.00474   2.18866
    A2        2.17781  -0.00217  -0.00118  -0.01326  -0.01444   2.16336
    A3        1.92146   0.00295   0.00216   0.00754   0.00970   1.93116
    A4        2.22762   0.00252   0.01574   0.04809   0.06344   2.29106
    A5        1.86287  -0.00054   0.01905  -0.01316   0.00589   1.86876
    A6        1.86287  -0.00054   0.01905  -0.01258   0.00589   1.86876
    A7        2.18392  -0.00078  -0.00098   0.00579   0.00474   2.18866
    A8        1.92146   0.00295   0.00216   0.00751   0.00970   1.93116
    A9        2.17781  -0.00217  -0.00118  -0.01330  -0.01444   2.16336
   A10        2.22762   0.00252   0.01574   0.04780   0.06344   2.29106
   A11        3.15036  -0.00121  -0.03381  -0.04021  -0.07407   3.07629
   A12        3.15036  -0.00121  -0.03381  -0.04143  -0.07407   3.07629
   A13        3.14159   0.00000   0.00000   0.00000   0.00000   3.14159
   A14        3.14159   0.00000   0.00000   0.00000   0.00000   3.14159
    D1        0.00000   0.00000   0.00000   0.00000   0.00000   0.00000
    D2        3.14159   0.00000   0.00000   0.00000   0.00000   3.14159
    D3        0.00000   0.00000   0.00000   0.00000   0.00000   0.00000
    D4        3.14159   0.00000   0.00000   0.00000   0.00000   3.14159
    D5        0.00000   0.00000   0.00000   0.00000   0.00000   0.00000
    D6        0.00000   0.00000   0.00000   0.00000   0.00000   0.00000
    D7        0.00000   0.00000   0.00000   0.00000   0.00000   0.00000
    D8        3.14159   0.00000   0.00000   0.00000   0.00000   3.14159
    D9        0.00000   0.00000   0.00000   0.00000   0.00000   0.00000
   D10        3.14159   0.00000   0.00000   0.00000   0.00000   3.14159
         Item               Value     Threshold  Converged?
 Maximum Force            0.006775     0.000450     NO 
 RMS     Force            0.002598     0.000300     NO 
 Maximum Displacement     0.202933     0.001800     NO 
 RMS     Displacement     0.089894     0.001200     NO 
 Predicted change in Energy=-2.703778D-03
 GradGradGradGradGradGradGradGradGradGradGradGradGradGradGradGradGradGrad

                          Input orientation:                          
 ---------------------------------------------------------------------
 Center     Atomic      Atomic             Coordinates (Angstroms)
 Number     Number       Type             X           Y           Z
 ---------------------------------------------------------------------
      1          6           0        0.247758    0.000000    0.082657
      2          8           0        0.371354    0.000000    1.300782
      3          8           0        1.275222    0.000000   -0.816657
      4          1           0       -0.744982    0.000000   -0.448704
      5          1           0        2.121213    0.000000   -0.293488
      6          1           0        1.715279    0.000000    2.258488
      7          8           0        2.561270    0.000000    2.781657
      8          6           0        3.588735    0.000000    1.882343
      9          8           0        3.465138    0.000000    0.664218
     10          1           0        4.581475    0.000000    2.413704
 ---------------------------------------------------------------------
                    Distance matrix (angstroms):
                    1          2          3          4          5
     1  C    0.000000
     2  O    1.224380   0.000000
     3  O    1.365449   2.302288   0.000000
     4  H    1.126000   2.075309   2.053440   0.000000
     5  H    1.910843   2.367214   0.994689   2.870395   0.000000
     6  H    2.624473   1.650253   3.106472   3.658111   2.584060
     7  O    3.554848   2.643619   3.821229   4.622395   3.106472
     8  C    3.794865   3.269518   3.554848   4.920862   2.624473
     9  O    3.269518   3.158593   2.643619   4.354734   1.650253
    10  H    4.920862   4.354734   4.622395   6.046860   3.658111
                    6          7          8          9         10
     6  H    0.000000
     7  O    0.994689   0.000000
     8  C    1.910843   1.365449   0.000000
     9  O    2.367214   2.302288   1.224380   0.000000
    10  H    2.870395   2.053440   1.126000   2.075309   0.000000
 Stoichiometry    C2H4O4
 Framework group  C2H[SGH(C2H4O4)]
 Deg. of freedom     9
 Full point group                 C2H     NOp   4
 Largest Abelian subgroup         C2H     NOp   4
 Largest concise Abelian subgroup C2      NOp   2
                         Standard orientation:                         
 ---------------------------------------------------------------------
 Center     Atomic      Atomic             Coordinates (Angstroms)
 Number     Number       Type             X           Y           Z
 ---------------------------------------------------------------------
      1          6           0       -0.190347    1.887861    0.000000
      2          8           0       -1.130180    1.103119    0.000000
      3          8           0        1.130180    1.540500    0.000000
      4          1           0       -0.306282    3.007876    0.000000
      5          1           0        1.170696    0.546636    0.000000
      6          1           0       -1.170696   -0.546636    0.000000
      7          8           0       -1.130180   -1.540500    0.000000
      8          6           0        0.190347   -1.887861    0.000000
      9          8           0        1.130180   -1.103119    0.000000
     10          1           0        0.306282   -3.007876    0.000000
 ---------------------------------------------------------------------
 Rotational constants (GHZ):      5.9305947      2.3019271      1.6582764
 Standard basis: STO-3G (5D, 7F)
 There are    14 symmetry adapted basis functions of AG  symmetry.
 There are     3 symmetry adapted basis functions of BG  symmetry.
 There are     3 symmetry adapted basis functions of AU  symmetry.
 There are    14 symmetry adapted basis functions of BU  symmetry.
 Integral buffers will be    131072 words long.
 Raffenetti 1 integral format.
 Two-electron integral symmetry is turned on.
    34 basis functions,   102 primitive gaussians,    34 cartesian basis functions
    24 alpha electrons       24 beta electrons
       nuclear repulsion energy       233.7191365211 Hartrees.
 NAtoms=   10 NActive=   10 NUniq=    5 SFac= 4.00D+00 NAtFMM=   60 NAOKFM=F Big=F
 One-electron integrals computed using PRISM.
 NBasis=    34 RedAO= T  NBF=    14     3     3    14
 NBsUse=    34 1.00D-06 NBFU=    14     3     3    14
 Initial guess read from the read-write file.
 B after Tr=     0.000000    0.000000    0.000000
         Rot=    1.000000    0.000000    0.000000    0.000000 Ang=   0.00 deg.
 Initial guess orbital symmetries:
       Occupied  (BU) (AG) (AG) (BU) (AG) (BU) (AG) (BU) (BU) (AG)
                 (AG) (BU) (BU) (AG) (BU) (AG) (AU) (BG) (AG) (BU)
                 (AG) (BG) (AU) (BU)
       Virtual   (AU) (BG) (AG) (BU) (BU) (AG) (AG) (BU) (AG) (BU)
 Harris functional with IExCor=  205 diagonalized for initial guess.
 ExpMin= 1.69D-01 ExpMax= 1.31D+02 ExpMxC= 1.31D+02 IAcc=1 IRadAn=         1 AccDes= 0.00D+00
 HarFok:  IExCor=  205 AccDes= 0.00D+00 IRadAn=         1 IDoV= 1
 ScaDFX=  1.000000  1.000000  1.000000  1.000000
 FoFCou: FMM=F IPFlag=           0 FMFlag=      100000 FMFlg1=           0
         NFxFlg=           0 DoJE=T BraDBF=F KetDBF=T FulRan=T
         Omega=  0.000000  0.000000  1.000000  0.000000  0.000000 ICntrl=     500 IOpCl=  0
         NMat0=    1 NMatS0=    1 NMatT0=    0 NMatD0=    1 NMtDS0=    0 NMtDT0=    0
         I1Cent=           4 NGrid=           0.
 Petite list used in FoFCou.
 Requested convergence on RMS density matrix=1.00D-08 within 128 cycles.
 Requested convergence on MAX density matrix=1.00D-06.
 Requested convergence on             energy=1.00D-06.
 No special actions if energy rises.
 Keep R1 ints in memory in canonical form, NReq=999498.
 SCF Done:  E(RHF) =  -372.458002204     A.U. after   11 cycles
             Convg  =    0.3997D-08             -V/T =  2.0086
 Calling FoFJK, ICntrl=      2127 FMM=F ISym2X=1 I1Cent= 0 IOpClX= 0 NMat=1 NMatS=1 NMatT=0.
 ***** Axes restored to original set *****
 -------------------------------------------------------------------
 Center     Atomic                   Forces (Hartrees/Bohr)
 Number     Number              X              Y              Z
 -------------------------------------------------------------------
      1        6          -0.007550471    0.000000000   -0.014480005
      2        8           0.001126140    0.000000000    0.001446181
      3        8          -0.008438791    0.000000000    0.002806885
      4        1           0.013404690    0.000000000    0.009600121
      5        1           0.005950991    0.000000000    0.004817355
      6        1          -0.005950991    0.000000000   -0.004817355
      7        8           0.008438791    0.000000000   -0.002806885
      8        6           0.007550471    0.000000000    0.014480005
      9        8          -0.001126140    0.000000000   -0.001446181
     10        1          -0.013404690    0.000000000   -0.009600121
 -------------------------------------------------------------------
 Cartesian Forces:  Max     0.014480005 RMS     0.006731027

 GradGradGradGradGradGradGradGradGradGradGradGradGradGradGradGradGradGrad
 Berny optimization.
 Using GEDIIS/GDIIS optimizer.
 Internal  Forces:  Max     0.016348573 RMS     0.004609933
 Search for a local minimum.
 Step number   5 out of a maximum of   44
 All quantities printed in internal units (Hartrees-Bohrs-Radians)
 Mixed Optimization -- RFO/linear search
 Update second derivatives using D2CorX and points    4    5
 DE= -3.26D-03 DEPred=-2.70D-03 R= 1.21D+00
 SS=  1.41D+00  RLast= 4.78D-01 DXNew= 1.4270D+00 1.4346D+00
 Trust test= 1.21D+00 RLast= 4.78D-01 DXMaxT set to 1.43D+00
 ITU=  1  1  1  1  0
 Use linear search instead of GDIIS.
     Eigenvalues ---    0.00486   0.00624   0.01129   0.01268   0.02370
     Eigenvalues ---    0.02882   0.03300   0.03465   0.03577   0.05682
     Eigenvalues ---    0.07381   0.15896   0.16000   0.17905   0.19479
     Eigenvalues ---    0.24002   0.37385   0.47688   0.48856   0.49463
     Eigenvalues ---    0.53720   0.75309   0.99829   1.08724
 RFO step:  Lambda=-1.53353873D-03 EMin= 4.85599204D-03
 Quartic linear search produced a step of  0.18703.
 Iteration  1 RMS(Cart)=  0.04001226 RMS(Int)=  0.00013627
 Iteration  2 RMS(Cart)=  0.00018653 RMS(Int)=  0.00000163
 Iteration  3 RMS(Cart)=  0.00000003 RMS(Int)=  0.00000163
 ClnCor:  largest displacement from symmetrization is 1.15D-03 for atom     6.
 Variable       Old X    -DE/DX   Delta X   Delta X   Delta X     New X
                                 (Linear)    (Quad)   (Total)
    R1        2.31374  -0.00076   0.00068   0.00247   0.00315   2.31690
    R2        2.58032  -0.00720  -0.00143  -0.01494  -0.01637   2.56395
    R3        2.12783  -0.01635   0.00490  -0.02008  -0.01518   2.11266
    R4        3.11853  -0.00305  -0.06023  -0.08649  -0.14703   2.97149
    R5        1.87969   0.00458   0.00064   0.01218   0.01282   1.89251
    R6        3.11853  -0.00305  -0.06023  -0.08712  -0.14703   2.97149
    R7        1.87969   0.00458   0.00064   0.01224   0.01282   1.89251
    R8        2.58032  -0.00720  -0.00143  -0.01490  -0.01637   2.56395
    R9        2.31374  -0.00076   0.00068   0.00246   0.00315   2.31690
   R10        2.12783  -0.01635   0.00490  -0.02008  -0.01518   2.11266
    A1        2.18866  -0.00025   0.00089  -0.00351  -0.00262   2.18604
    A2        2.16336  -0.00215  -0.00270  -0.01176  -0.01446   2.14890
    A3        1.93116   0.00240   0.00181   0.01527   0.01709   1.94825
    A4        2.29106  -0.00052   0.01186  -0.00278   0.00872   2.29978
    A5        1.86876   0.00004   0.00110   0.00263   0.00374   1.87250
    A6        1.86876   0.00004   0.00110   0.00314   0.00374   1.87250
    A7        2.18866  -0.00025   0.00089  -0.00346  -0.00262   2.18604
    A8        1.93116   0.00240   0.00181   0.01525   0.01709   1.94825
    A9        2.16336  -0.00215  -0.00270  -0.01179  -0.01446   2.14890
   A10        2.29106  -0.00052   0.01186  -0.00305   0.00872   2.29978
   A11        3.07629   0.00073  -0.01385   0.00405  -0.00984   3.06646
   A12        3.07629   0.00073  -0.01385   0.00298  -0.00984   3.06646
   A13        3.14159   0.00000   0.00000   0.00000   0.00000   3.14159
   A14        3.14159   0.00000   0.00000   0.00000   0.00000   3.14159
    D1        0.00000   0.00000   0.00000   0.00000   0.00000   0.00000
    D2        3.14159   0.00000   0.00000   0.00000   0.00000   3.14159
    D3        0.00000   0.00000   0.00000   0.00000   0.00000   0.00000
    D4        3.14159   0.00000   0.00000   0.00000   0.00000   3.14159
    D5        0.00000   0.00000   0.00000   0.00000   0.00000   0.00000
    D6        0.00000   0.00000   0.00000   0.00000   0.00000   0.00000
    D7        0.00000   0.00000   0.00000   0.00000   0.00000   0.00000
    D8        3.14159   0.00000   0.00000   0.00000   0.00000   3.14159
    D9        0.00000   0.00000   0.00000   0.00000   0.00000   0.00000
   D10        3.14159   0.00000   0.00000   0.00000   0.00000   3.14159
         Item               Value     Threshold  Converged?
 Maximum Force            0.016349     0.000450     NO 
 RMS     Force            0.004610     0.000300     NO 
 Maximum Displacement     0.067025     0.001800     NO 
 RMS     Displacement     0.040038     0.001200     NO 
 Predicted change in Energy=-1.062596D-03
 GradGradGradGradGradGradGradGradGradGradGradGradGradGradGradGradGradGrad

                          Input orientation:                          
 ---------------------------------------------------------------------
 Center     Atomic      Atomic             Coordinates (Angstroms)
 Number     Number       Type             X           Y           Z
 ---------------------------------------------------------------------
      1          6           0        0.280167    0.000000    0.097214
      2          8           0        0.406823    0.000000    1.316702
      3          8           0        1.301340    0.000000   -0.796136
      4          1           0       -0.714232    0.000000   -0.413692
      5          1           0        2.154931    0.000000   -0.272369
      6          1           0        1.681561    0.000000    2.237369
      7          8           0        2.535153    0.000000    2.761136
      8          6           0        3.556325    0.000000    1.867786
      9          8           0        3.429670    0.000000    0.648298
     10          1           0        4.550725    0.000000    2.378692
 ---------------------------------------------------------------------
                    Distance matrix (angstroms):
                    1          2          3          4          5
     1  C    0.000000
     2  O    1.226048   0.000000
     3  O    1.356786   2.294395   0.000000
     4  H    1.117969   2.061802   2.051535   0.000000
     5  H    1.910845   2.362421   1.001474   2.872642   0.000000
     6  H    2.558157   1.572446   3.057241   3.573227   2.553990
     7  O    3.490192   2.572193   3.765167   4.542910   3.057241
     8  C    3.723995   3.197352   3.490192   4.841777   2.558157
     9  O    3.197352   3.095863   2.572193   4.277820   1.572446
    10  H    4.841777   4.277820   4.542910   5.959629   3.573227
                    6          7          8          9         10
     6  H    0.000000
     7  O    1.001474   0.000000
     8  C    1.910845   1.356786   0.000000
     9  O    2.362421   2.294395   1.226048   0.000000
    10  H    2.872642   2.051535   1.117969   2.061802   0.000000
 Stoichiometry    C2H4O4
 Framework group  C2H[SGH(C2H4O4)]
 Deg. of freedom     9
 Full point group                 C2H     NOp   4
 Largest Abelian subgroup         C2H     NOp   4
 Largest concise Abelian subgroup C2      NOp   2
                         Standard orientation:                         
 ---------------------------------------------------------------------
 Center     Atomic      Atomic             Coordinates (Angstroms)
 Number     Number       Type             X           Y           Z
 ---------------------------------------------------------------------
      1          6           0       -0.187356    1.852547    0.000000
      2          8           0       -1.125283    1.062935    0.000000
      3          8           0        1.125283    1.509258    0.000000
      4          1           0       -0.323025    2.962254    0.000000
      5          1           0        1.171238    0.508839    0.000000
      6          1           0       -1.171238   -0.508839    0.000000
      7          8           0       -1.125283   -1.509258    0.000000
      8          6           0        0.187356   -1.852547    0.000000
      9          8           0        1.125283   -1.062935    0.000000
     10          1           0        0.323025   -2.962254    0.000000
 ---------------------------------------------------------------------
 Rotational constants (GHZ):      5.9850496      2.4068021      1.7165258
 Standard basis: STO-3G (5D, 7F)
 There are    14 symmetry adapted basis functions of AG  symmetry.
 There are     3 symmetry adapted basis functions of BG  symmetry.
 There are     3 symmetry adapted basis functions of AU  symmetry.
 There are    14 symmetry adapted basis functions of BU  symmetry.
 Integral buffers will be    131072 words long.
 Raffenetti 1 integral format.
 Two-electron integral symmetry is turned on.
    34 basis functions,   102 primitive gaussians,    34 cartesian basis functions
    24 alpha electrons       24 beta electrons
       nuclear repulsion energy       236.2526075674 Hartrees.
 NAtoms=   10 NActive=   10 NUniq=    5 SFac= 4.00D+00 NAtFMM=   60 NAOKFM=F Big=F
 One-electron integrals computed using PRISM.
 NBasis=    34 RedAO= T  NBF=    14     3     3    14
 NBsUse=    34 1.00D-06 NBFU=    14     3     3    14
 Initial guess read from the read-write file.
 B after Tr=     0.000000    0.000000    0.000000
         Rot=    1.000000    0.000000    0.000000    0.000000 Ang=   0.00 deg.
 Initial guess orbital symmetries:
       Occupied  (BU) (AG) (AG) (BU) (BU) (AG) (AG) (BU) (BU) (AG)
                 (AG) (BU) (BU) (AG) (BU) (AG) (AU) (BG) (AG) (BU)
                 (AG) (BG) (AU) (BU)
       Virtual   (AU) (BG) (AG) (BU) (BU) (AG) (BU) (AG) (AG) (BU)
 Harris functional with IExCor=  205 diagonalized for initial guess.
 ExpMin= 1.69D-01 ExpMax= 1.31D+02 ExpMxC= 1.31D+02 IAcc=1 IRadAn=         1 AccDes= 0.00D+00
 HarFok:  IExCor=  205 AccDes= 0.00D+00 IRadAn=         1 IDoV= 1
 ScaDFX=  1.000000  1.000000  1.000000  1.000000
 FoFCou: FMM=F IPFlag=           0 FMFlag=      100000 FMFlg1=           0
         NFxFlg=           0 DoJE=T BraDBF=F KetDBF=T FulRan=T
         Omega=  0.000000  0.000000  1.000000  0.000000  0.000000 ICntrl=     500 IOpCl=  0
         NMat0=    1 NMatS0=    1 NMatT0=    0 NMatD0=    1 NMtDS0=    0 NMtDT0=    0
         I1Cent=           4 NGrid=           0.
 Petite list used in FoFCou.
 Requested convergence on RMS density matrix=1.00D-08 within 128 cycles.
 Requested convergence on MAX density matrix=1.00D-06.
 Requested convergence on             energy=1.00D-06.
 No special actions if energy rises.
 Keep R1 ints in memory in canonical form, NReq=999498.
 SCF Done:  E(RHF) =  -372.459237083     A.U. after   10 cycles
             Convg  =    0.5872D-08             -V/T =  2.0085
 Calling FoFJK, ICntrl=      2127 FMM=F ISym2X=1 I1Cent= 0 IOpClX= 0 NMat=1 NMatS=1 NMatT=0.
 ***** Axes restored to original set *****
 -------------------------------------------------------------------
 Center     Atomic                   Forces (Hartrees/Bohr)
 Number     Number              X              Y              Z
 -------------------------------------------------------------------
      1        6          -0.003448643    0.000000000   -0.009678570
      2        8          -0.002382067    0.000000000    0.003417634
      3        8          -0.005258446    0.000000000    0.000356174
      4        1           0.008337883    0.000000000    0.005085659
      5        1           0.001715122    0.000000000    0.003105871
      6        1          -0.001715122    0.000000000   -0.003105871
      7        8           0.005258446    0.000000000   -0.000356174
      8        6           0.003448643    0.000000000    0.009678570
      9        8           0.002382067    0.000000000   -0.003417634
     10        1          -0.008337883    0.000000000   -0.005085659
 -------------------------------------------------------------------
 Cartesian Forces:  Max     0.009678570 RMS     0.004152692

 GradGradGradGradGradGradGradGradGradGradGradGradGradGradGradGradGradGrad
 Berny optimization.
 Using GEDIIS/GDIIS optimizer.
 Internal  Forces:  Max     0.009740411 RMS     0.002793993
 Search for a local minimum.
 Step number   6 out of a maximum of   44
 All quantities printed in internal units (Hartrees-Bohrs-Radians)
 Mixed Optimization -- RFO/linear search
 Update second derivatives using D2CorX and points    5    6
 DE= -1.23D-03 DEPred=-1.06D-03 R= 1.16D+00
 SS=  1.41D+00  RLast= 2.14D-01 DXNew= 2.4000D+00 6.4324D-01
 Trust test= 1.16D+00 RLast= 2.14D-01 DXMaxT set to 1.43D+00
 ITU=  1  1  1  1  1  0
 Use linear search instead of GDIIS.
     Eigenvalues ---    0.00497   0.00625   0.01125   0.02041   0.02361
     Eigenvalues ---    0.02856   0.03310   0.03476   0.03560   0.05357
     Eigenvalues ---    0.07382   0.15470   0.16000   0.17248   0.19452
     Eigenvalues ---    0.24117   0.37349   0.41263   0.47688   0.48844
     Eigenvalues ---    0.49468   0.55546   0.99696   1.09798
 RFO step:  Lambda=-8.03749940D-04 EMin= 4.96826343D-03
 Quartic linear search produced a step of  0.36518.
 Iteration  1 RMS(Cart)=  0.01772299 RMS(Int)=  0.00017001
 Iteration  2 RMS(Cart)=  0.00023650 RMS(Int)=  0.00000160
 Iteration  3 RMS(Cart)=  0.00000001 RMS(Int)=  0.00000160
 ClnCor:  largest displacement from symmetrization is 1.38D-03 for atom     6.
 Variable       Old X    -DE/DX   Delta X   Delta X   Delta X     New X
                                 (Linear)    (Quad)   (Total)
    R1        2.31690   0.00207   0.00115   0.00266   0.00381   2.32071
    R2        2.56395  -0.00380  -0.00598  -0.00516  -0.01113   2.55282
    R3        2.11266  -0.00974  -0.00554  -0.02304  -0.02858   2.08407
    R4        2.97149  -0.00025  -0.05369   0.03558  -0.01847   2.95302
    R5        1.89251   0.00293   0.00468   0.00561   0.01030   1.90281
    R6        2.97149  -0.00025  -0.05369   0.03482  -0.01847   2.95302
    R7        1.89251   0.00293   0.00468   0.00568   0.01030   1.90281
    R8        2.56395  -0.00380  -0.00598  -0.00511  -0.01113   2.55282
    R9        2.31690   0.00207   0.00115   0.00265   0.00381   2.32071
   R10        2.11266  -0.00974  -0.00554  -0.02304  -0.02858   2.08407
    A1        2.18604   0.00107  -0.00096   0.00117   0.00021   2.18625
    A2        2.14890  -0.00129  -0.00528  -0.00614  -0.01142   2.13748
[...]
 Atom     3 has atomic number  8 and mass  15.99491
 Atom     4 has atomic number  1 and mass   1.00783
 Atom     5 has atomic number  1 and mass   1.00783
 Atom     6 has atomic number  1 and mass   1.00783
 Atom     7 has atomic number  8 and mass  15.99491
 Atom     8 has atomic number  6 and mass  12.00000
 Atom     9 has atomic number  8 and mass  15.99491
 Atom    10 has atomic number  1 and mass   1.00783
 Molecular mass:    92.01096 amu.
 Principal axes and moments of inertia in atomic units:
                           1         2         3
     Eigenvalues --   305.81786 727.648971033.46683
           X            0.04200   0.99912   0.00000
           Y            0.99912  -0.04200   0.00000
           Z            0.00000   0.00000   1.00000
 This molecule is an asymmetric top.
 Rotational symmetry number  2.
 Rotational temperatures (Kelvin)      0.28322     0.11903     0.08381
 Rotational constants (GHZ):           5.90136     2.48024     1.74630
 Zero-point vibrational energy     213262.9 (Joules/Mol)
                                   50.97105 (Kcal/Mol)
 Warning -- explicit consideration of   6 degrees of freedom as
           vibrations may cause significant error
 Vibrational temperatures:    102.80   267.73   292.27   390.42   402.07
          (Kelvin)            612.82  1009.23  1072.39  1508.82  1542.05
                             1688.80  1743.02  1919.02  1932.45  2287.80
                             2298.47  2565.09  2606.72  2852.38  2974.62
                             5138.36  5139.27  5334.67  5617.94
 
 Zero-point correction=                           0.081228 (Hartree/Particle)
 Thermal correction to Energy=                    0.087509
 Thermal correction to Enthalpy=                  0.088453
 Thermal correction to Gibbs Free Energy=         0.051216
 Sum of electronic and zero-point Energies=           -372.378691
 Sum of electronic and thermal Energies=              -372.372410
 Sum of electronic and thermal Enthalpies=            -372.371466
 Sum of electronic and thermal Free Energies=         -372.408703
 
                     E (Thermal)             CV                S
                      KCal/Mol        Cal/Mol-Kelvin    Cal/Mol-Kelvin
 Total                   54.912             19.540             78.371
 Electronic               0.000              0.000              0.000
 Translational            0.889              2.981             39.470
 Rotational               0.889              2.981             25.556
 Vibrational             53.135             13.578             13.345
 Vibration     1          0.598              1.968              4.113
 Vibration     2          0.632              1.859              2.267
 Vibration     3          0.639              1.835              2.105
 Vibration     4          0.675              1.726              1.588
 Vibration     5          0.680              1.712              1.537
 Vibration     6          0.788              1.414              0.872
                       Q            Log10(Q)             Ln(Q)
 Total Bot       0.276857D-23        -23.557745        -54.243713
 Total V=0       0.637162D+14         13.804250         31.785461
 Vib (Bot)       0.929787D-36        -36.031617        -82.965864
 Vib (Bot)    1  0.288606D+01          0.460306          1.059894
 Vib (Bot)    2  0.107708D+01          0.032248          0.074253
 Vib (Bot)    3  0.980402D+00         -0.008596         -0.019793
 Vib (Bot)    4  0.711724D+00         -0.147688         -0.340065
 Vib (Bot)    5  0.688184D+00         -0.162296         -0.373699
 Vib (Bot)    6  0.410375D+00         -0.386819         -0.890683
 Vib (V=0)       0.213983D+02          1.330379          3.063310
 Vib (V=0)    1  0.342906D+01          0.535175          1.232285
 Vib (V=0)    2  0.168748D+01          0.227238          0.523234
 Vib (V=0)    3  0.160054D+01          0.204266          0.470341
 Vib (V=0)    4  0.136980D+01          0.136657          0.314664
 Vib (V=0)    5  0.135064D+01          0.130541          0.300582
 Vib (V=0)    6  0.114684D+01          0.059505          0.137014
 Electronic      0.100000D+01          0.000000          0.000000
 Translational   0.346908D+08          7.540215         17.361986
 Rotational      0.858335D+05          4.933657         11.360165
 ***** Axes restored to original set *****
 -------------------------------------------------------------------
 Center     Atomic                   Forces (Hartrees/Bohr)
 Number     Number              X              Y              Z
 -------------------------------------------------------------------
      1        6          -0.000027523    0.000000000    0.000040975
      2        8          -0.000016462    0.000000000    0.000004745
      3        8           0.000065284    0.000000000   -0.000053129
      4        1           0.000015686    0.000000000    0.000017045
      5        1          -0.000026607    0.000000000    0.000007197
      6        1           0.000026607    0.000000000   -0.000007197
      7        8          -0.000065284    0.000000000    0.000053129
      8        6           0.000027523    0.000000000   -0.000040975
      9        8           0.000016462    0.000000000   -0.000004745
     10        1          -0.000015686    0.000000000   -0.000017045
 -------------------------------------------------------------------
 Cartesian Forces:  Max     0.000065284 RMS     0.000027216

 GradGradGradGradGradGradGradGradGradGradGradGradGradGradGradGradGradGrad
 Berny optimization.
 Internal  Forces:  Max     0.000060539 RMS     0.000019755
 Search for a local minimum.
 Step number   1 out of a maximum of    2
 All quantities printed in internal units (Hartrees-Bohrs-Radians)
 Second derivative matrix not updated -- analytic derivatives used.
 ITU=  0
     Eigenvalues ---    0.00186   0.00628   0.01130   0.01954   0.02613
     Eigenvalues ---    0.03471   0.04461   0.05434   0.07429   0.07581
     Eigenvalues ---    0.08481   0.13185   0.18765   0.18826   0.24892
     Eigenvalues ---    0.29655   0.44884   0.45084   0.52035   0.57833
     Eigenvalues ---    0.58034   0.59385   0.96915   1.03935
 Angle between quadratic step and forces=  43.27 degrees.
 Linear search not attempted -- first point.
 Iteration  1 RMS(Cart)=  0.00006364 RMS(Int)=  0.00000000
 Iteration  2 RMS(Cart)=  0.00000000 RMS(Int)=  0.00000000
 ClnCor:  largest displacement from symmetrization is 1.17D-13 for atom     9.
 Variable       Old X    -DE/DX   Delta X   Delta X   Delta X     New X
                                 (Linear)    (Quad)   (Total)
    R1        2.32590  -0.00001   0.00000  -0.00001  -0.00001   2.32589
    R2        2.54687   0.00006   0.00000   0.00011   0.00011   2.54698
    R3        2.09114  -0.00002   0.00000  -0.00005  -0.00005   2.09109
    R4        2.88448  -0.00001   0.00000  -0.00006  -0.00006   2.88442
    R5        1.90766  -0.00003   0.00000  -0.00003  -0.00003   1.90762
    R6        2.88448  -0.00001   0.00000  -0.00006  -0.00006   2.88442
    R7        1.90766  -0.00003   0.00000  -0.00003  -0.00003   1.90762
    R8        2.54687   0.00006   0.00000   0.00011   0.00011   2.54698
    R9        2.32590  -0.00001   0.00000  -0.00001  -0.00001   2.32589
   R10        2.09114  -0.00002   0.00000  -0.00005  -0.00005   2.09109
    A1        2.19463   0.00002   0.00000   0.00006   0.00006   2.19470
    A2        2.13373  -0.00002   0.00000  -0.00007  -0.00007   2.13366
    A3        1.95482   0.00000   0.00000   0.00001   0.00001   1.95483
    A4        2.21805  -0.00001   0.00000  -0.00011  -0.00011   2.21794
    A5        1.88763  -0.00002   0.00000  -0.00011  -0.00011   1.88752
    A6        1.88763  -0.00002   0.00000  -0.00011  -0.00011   1.88752
    A7        2.19463   0.00002   0.00000   0.00006   0.00006   2.19470
    A8        1.95482   0.00000   0.00000   0.00001   0.00001   1.95483
    A9        2.13373  -0.00002   0.00000  -0.00007  -0.00007   2.13366
   A10        2.21805  -0.00001   0.00000  -0.00011  -0.00011   2.21794
   A11        3.12446   0.00001   0.00000   0.00015   0.00015   3.12462
   A12        3.12446   0.00001   0.00000   0.00015   0.00015   3.12462
   A13        3.14159   0.00000   0.00000   0.00000   0.00000   3.14159
   A14        3.14159   0.00000   0.00000   0.00000   0.00000   3.14159
    D1        0.00000   0.00000   0.00000   0.00000   0.00000   0.00000
    D2        3.14159   0.00000   0.00000   0.00000   0.00000   3.14159
    D3        0.00000   0.00000   0.00000   0.00000   0.00000   0.00000
    D4        3.14159   0.00000   0.00000   0.00000   0.00000   3.14159
    D5        0.00000   0.00000   0.00000   0.00000   0.00000   0.00000
    D6        0.00000   0.00000   0.00000   0.00000   0.00000   0.00000
    D7        0.00000   0.00000   0.00000   0.00000   0.00000   0.00000
    D8        3.14159   0.00000   0.00000   0.00000   0.00000   3.14159
    D9        0.00000   0.00000   0.00000   0.00000   0.00000   0.00000
   D10        3.14159   0.00000   0.00000   0.00000   0.00000   3.14159
         Item               Value     Threshold  Converged?
 Maximum Force            0.000061     0.000450     YES
 RMS     Force            0.000020     0.000300     YES
 Maximum Displacement     0.000137     0.001800     YES
 RMS     Displacement     0.000064     0.001200     YES
 Predicted change in Energy=-1.628166D-08
 Optimization completed.
    -- Stationary point found.
                           ----------------------------
                           !   Optimized Parameters   !
                           ! (Angstroms and Degrees)  !
 --------------------------                            --------------------------
 ! Name  Definition              Value          Derivative Info.                !
 --------------------------------------------------------------------------------
 ! R1    R(1,2)                  1.2308         -DE/DX =    0.0                 !
 ! R2    R(1,3)                  1.3477         -DE/DX =    0.0001              !
 ! R3    R(1,4)                  1.1066         -DE/DX =    0.0                 !
 ! R4    R(2,6)                  1.5264         -DE/DX =    0.0                 !
 ! R5    R(3,5)                  1.0095         -DE/DX =    0.0                 !
 ! R6    R(5,9)                  1.5264         -DE/DX =    0.0                 !
 ! R7    R(6,7)                  1.0095         -DE/DX =    0.0                 !
 ! R8    R(7,8)                  1.3477         -DE/DX =    0.0001              !
 ! R9    R(8,9)                  1.2308         -DE/DX =    0.0                 !
 ! R10   R(8,10)                 1.1066         -DE/DX =    0.0                 !
 ! A1    A(2,1,3)              125.7432         -DE/DX =    0.0                 !
 ! A2    A(2,1,4)              122.2538         -DE/DX =    0.0                 !
 ! A3    A(3,1,4)              112.003          -DE/DX =    0.0                 !
 ! A4    A(1,2,6)              127.085          -DE/DX =    0.0                 !
 ! A5    A(1,3,5)              108.1533         -DE/DX =    0.0                 !
 ! A6    A(6,7,8)              108.1533         -DE/DX =    0.0                 !
 ! A7    A(7,8,9)              125.7432         -DE/DX =    0.0                 !
 ! A8    A(7,8,10)             112.003          -DE/DX =    0.0                 !
 ! A9    A(9,8,10)             122.2538         -DE/DX =    0.0                 !
 ! A10   A(5,9,8)              127.085          -DE/DX =    0.0                 !
 ! A11   L(3,5,9,6,-1)         179.0185         -DE/DX =    0.0                 !
 ! A12   L(2,6,7,5,-1)         179.0185         -DE/DX =    0.0                 !
 ! A13   L(3,5,9,6,-2)         180.0            -DE/DX =    0.0                 !
 ! A14   L(2,6,7,5,-2)         180.0            -DE/DX =    0.0                 !
 ! D1    D(3,1,2,6)              0.0            -DE/DX =    0.0                 !
 ! D2    D(4,1,2,6)            180.0            -DE/DX =    0.0                 !
 ! D3    D(2,1,3,5)              0.0            -DE/DX =    0.0                 !
 ! D4    D(4,1,3,5)            180.0            -DE/DX =    0.0                 !
 ! D5    D(1,2,7,8)              0.0            -DE/DX =    0.0                 !
 ! D6    D(1,3,9,8)              0.0            -DE/DX =    0.0                 !
 ! D7    D(6,7,8,9)              0.0            -DE/DX =    0.0                 !
 ! D8    D(6,7,8,10)           180.0            -DE/DX =    0.0                 !
 ! D9    D(7,8,9,5)              0.0            -DE/DX =    0.0                 !
 ! D10   D(10,8,9,5)           180.0            -DE/DX =    0.0                 !
 --------------------------------------------------------------------------------
 GradGradGradGradGradGradGradGradGradGradGradGradGradGradGradGradGradGrad

 1\1\GINC-NODE47\Freq\RHF\STO-3G\C2H4O4\CN410107\22-Sep-2018\0\\#N Geom
 =AllCheck Guess=TCheck SCRF=Check GenChk RHF/STO-3G Freq\\Formic Acid 
 Dimer\\0,1\C,0.288352087,0.,0.1179375789\O,0.3767503558,0.,1.345573403
 1\O,1.3228707885,0.,-0.7458835337\H,-0.6874740616,0.,-0.4038759625\H,2
 .1791064068,0.,-0.2111616428\H,1.6573861319,0.,2.1761616428\O,2.513621
 7502,0.,2.7108835337\C,3.5481404518,0.,1.8470624211\O,3.459742183,0.,0
 .6194265969\H,4.5239666004,0.,2.3688759625\\Version=EM64L-G09RevC.01\S
 tate=1-AG\HF=-372.459919\RMSD=2.760e-10\RMSF=2.722e-05\ZeroPoint=0.081
 2275\Thermal=0.0875086\Dipole=0.,0.,0.\DipoleDeriv=1.025602,0.,-0.3075
 068,0.,0.3755171,0.,-0.2466407,0.,1.0929224,-0.9614759,0.,-0.3811251,0
 .,-0.3380017,0.,-0.217317,0.,-1.0075272,-0.9656658,0.,0.3126868,0.,-0.
 4242472,0.,0.0460879,0.,-0.6110092,-0.0200602,0.,0.0150011,0.,0.035476
 7,0.,-0.0001635,0.,0.0509735,0.9215998,0.,0.360944,0.,0.3512549,0.,0.4
 180333,0.,0.4746404,0.9215998,0.,0.360944,0.,0.3512549,0.,0.4180333,0.
 ,0.4746404,-0.9656658,0.,0.3126868,0.,-0.4242472,0.,0.0460879,0.,-0.61
 10092,1.025602,0.,-0.3075068,0.,0.3755171,0.,-0.2466407,0.,1.0929224,-
 0.9614759,0.,-0.3811251,0.,-0.3380017,0.,-0.217317,0.,-1.0075272,-0.02
 00602,0.,0.0150011,0.,0.0354767,0.,-0.0001635,0.,0.0509735\Polar=25.75
 13147,0.,4.7485908,3.5463632,0.,27.0167097\PolarDeriv=2.7905429,0.,-0.
 1484511,1.0292989,0.,0.5942031,0.,-0.8899097,0.,0.,-1.7728199,0.,-0.92
 19706,0.,-0.4302473,1.106784,0.,-5.7079807,0.0142488,0.,-0.1045175,3.0
 372159,0.,0.9978833,0.,-0.3277104,0.,0.,2.8034493,0.,2.545177,0.,0.839
 6662,0.1220352,0.,9.8920193,-5.0678378,0.,0.3202022,-3.1971081,0.,-2.5
 180179,0.,0.1117426,0.,0.,-1.7097763,0.,-2.6990183,0.,-0.3581444,-1.58
 15664,0.,-5.0576489,-6.84923,0.,-0.1344344,-2.8378786,0.,-0.4443323,0.
 ,-1.2971862,0.,0.,-0.4939514,0.,-1.4126506,0.,-0.0855997,-2.5062734,0.
 ,-2.1612334,8.3384243,0.,-0.0970136,2.5153165,0.,2.8231086,0.,1.103600
 4,0.,0.,0.2501824,0.,4.4092685,0.,-0.0155368,3.2798146,0.,2.3991495,-8
 .3384243,0.,0.0970136,-2.5153165,0.,-2.8231086,0.,-1.1036004,0.,0.,-0.
 2501824,0.,-4.4092685,0.,0.0155368,-3.2798146,0.,-2.3991495,5.0678378,
 0.,-0.3202022,3.1971081,0.,2.5180179,0.,-0.1117426,0.,0.,1.7097763,0.,
 2.6990183,0.,0.3581444,1.5815664,0.,5.0576489,-2.7905429,0.,0.1484511,
 -1.0292989,0.,-0.5942031,0.,0.8899097,0.,0.,1.7728199,0.,0.9219706,0.,
 0.4302473,-1.106784,0.,5.7079807,-0.0142488,0.,0.1045175,-3.0372159,0.
 ,-0.9978833,0.,0.3277104,0.,0.,-2.8034493,0.,-2.545177,0.,-0.8396662,-
 0.1220352,0.,-9.8920193,6.84923,0.,0.1344344,2.8378786,0.,0.4443323,0.
 ,1.2971862,0.,0.,0.4939514,0.,1.4126506,0.,0.0855997,2.5062734,0.,2.16
 12334\HyperPolar=0.,0.,0.,0.,0.,0.,0.,0.,0.,0.\PG=C02H [SGH(C2H4O4)]\N
 Imag=0\\0.90618457,0.,0.19957107,0.06738700,0.,1.31898360,-0.15616796,
 0.,-0.06301605,0.15994698,0.,-0.06912686,0.,0.,0.03507290,-0.10973533,
 0.,-0.89358375,0.07659229,0.,1.00463775,-0.36422191,0.,0.16916919,0.02
 878332,0.,0.05831062,0.78937645,0.,-0.05488711,0.,0.,0.02474741,0.,0.,
 0.04394552,0.12111498,0.,-0.26453000,0.04959543,0.,-0.07508128,0.03401
 271,0.,0.53738082,-0.34874756,0.,-0.13594501,0.01156273,0.,-0.00093338
 ,-0.03003476,0.,-0.01719147,0.36945998,0.,-0.07182194,0.,0.,0.02010676
 ,0.,0.,0.01125877,0.,0.,0.03076445,-0.13854781,0.,-0.15614758,-0.04335
 596,0.,-0.03014417,0.02624109,0.,0.02183385,0.15010200,0.,0.16768497,-
 0.07504996,0.,0.01696786,-0.00153939,0.,-0.03468584,-0.35506946,0.,-0.
 18489271,0.00283565,0.,0.00017492,0.41792526,0.,-0.00278115,0.,0.,-0.0
 0297572,0.,0.,-0.03341148,0.,0.,0.00795587,0.,0.,0.04700757,0.04523809
 ,0.,0.04387241,-0.00979764,0.,-0.01598495,-0.23482143,0.,-0.22657575,0
 .00714578,0.,-0.00721187,0.17567581,0.,0.21090531,0.03191363,0.,-0.040
 18128,-0.01561774,0.,0.03739653,-0.02497575,0.,0.01135915,-0.00343912,
 0.,0.00439411,0.02301690,0.,0.01379144,0.41792526,0.,-0.00008462,0.,0.
 ,-0.01728025,0.,0.,-0.00095732,0.,0.,0.00260752,0.,0.,-0.00008044,0.,0
 .,0.04700757,0.00912766,0.,-0.03596657,0.00974703,0.,0.01578769,-0.014
 68994,0.,0.00715531,-0.00141681,0.,0.00256071,0.01379144,0.,0.00545770
 ,0.17567581,0.,0.21090531,-0.02036973,0.,0.02990751,-0.04610004,0.,-0.
 05934322,0.02033905,0.,-0.00564656,0.00227283,0.,-0.00313996,-0.024975
 75,0.,-0.01468994,-0.35506946,0.,-0.23482143,0.78937645,0.,-0.00078697
 ,0.,0.,0.00984403,0.,0.,0.00095272,0.,0.,-0.00070558,0.,0.,-0.00095732
 ,0.,0.,-0.03341148,0.,0.,0.04394552,0.00323091,0.,-0.00027268,-0.01119
 504,0.,-0.00018081,-0.00564656,0.,-0.00002964,-0.00038743,0.,0.0003001
 6,0.01135915,0.,0.00715531,-0.18489271,0.,-0.22657575,0.03401271,0.,0.
 53738082,0.00770543,0.,-0.02094007,0.01998917,0.,0.02129149,-0.0203697
 3,0.,0.00323091,-0.00123566,0.,0.00183308,0.03191363,0.,0.00912766,-0.
 07504996,0.,0.04523809,-0.36422191,0.,0.12111498,0.90618457,0.,0.00087
 697,0.,0.,-0.00108219,0.,0.,-0.00078697,0.,0.,0.00012280,0.,0.,-0.0000
 8462,0.,0.,-0.00278115,0.,0.,-0.05488711,0.,0.,0.19957107,-0.02094007,
 0.,0.02671932,-0.02574503,0.,-0.03624845,0.02990751,0.,-0.00027268,0.0
 0239587,0.,-0.00282631,-0.04018128,0.,-0.03596657,0.01696786,0.,0.0438
 7241,0.16916919,0.,-0.26453000,0.06738700,0.,1.31898360,0.01998917,0.,
 -0.02574503,0.00192712,0.,0.01462490,-0.04610004,0.,-0.01119504,-0.002
 78416,0.,0.00255006,-0.01561774,0.,0.00974703,-0.00153939,0.,-0.009797
 64,0.02878332,0.,0.04959543,-0.15616796,0.,-0.06301605,0.15994698,0.,-
 0.00108219,0.,0.,0.00103942,0.,0.,0.00984403,0.,0.,-0.00034548,0.,0.,-
 0.01728025,0.,0.,-0.00297572,0.,0.,0.02474741,0.,0.,-0.06912686,0.,0.,
 0.03507290,0.02129149,0.,-0.03624845,0.01462490,0.,0.02718297,-0.05934
 322,0.,-0.00018081,-0.00351803,0.,0.00361502,0.03739653,0.,0.01578769,
 -0.03468584,0.,-0.01598495,0.05831062,0.,-0.07508128,-0.10973533,0.,-0
 .89358375,0.07659229,0.,1.00463775,-0.00123566,0.,0.00239587,-0.002784
 16,0.,-0.00351803,0.00227283,0.,-0.00038743,0.00011006,0.,-0.00025154,
 -0.00343912,0.,-0.00141681,0.00283565,0.,0.00714578,-0.03003476,0.,-0.
 01719147,-0.34874756,0.,-0.13594501,0.01156273,0.,-0.00093338,0.369459
 98,0.,0.00012280,0.,0.,-0.00034548,0.,0.,-0.00070558,0.,0.,0.00005684,
 0.,0.,0.00260752,0.,0.,0.00795587,0.,0.,0.01125877,0.,0.,-0.07182194,0
 .,0.,0.02010676,0.,0.,0.03076445,0.00183308,0.,-0.00282631,0.00255006,
 0.,0.00361502,-0.00313996,0.,0.00030016,-0.00025154,0.,0.00033520,0.00
 439411,0.,0.00256071,0.00017492,0.,-0.00721187,0.02624109,0.,0.0218338
 5,-0.13854781,0.,-0.15614758,-0.04335596,0.,-0.03014417,0.15010200,0.,
 0.16768497\\0.00002752,0.,-0.00004098,0.00001646,0.,-0.00000474,-0.000
 06528,0.,0.00005313,-0.00001569,0.,-0.00001705,0.00002661,0.,-0.000007
 20,-0.00002661,0.,0.00000720,0.00006528,0.,-0.00005313,-0.00002752,0.,
 0.00004098,-0.00001646,0.,0.00000474,0.00001569,0.,0.00001705\\\@


 THE MOST BEAUTIFUL EXPERIENCE WE CAN HAVE IS THE MYSTERIOUS.
 IT IS THE FUNDAMENTAL EMOTION WHICH STANDS AT AT THE CRADLE 
 OF TRUE ART AND TRUE SCIENCE.

                                    -- ALBERT EINSTEIN
 Job cpu time:  0 days  0 hours  0 minutes  3.6 seconds.
 File lengths (MBytes):  RWF=      5 Int=      0 D2E=      0 Chk=      1 Scr=      1
 Normal termination of Gaussian 09 at Sat Sep 22 15:29:53 2018.
