 Entering Gaussian System, Link 0=g09
 Input=formic_monomer.com
 Output=formic_monomer.log
 Initial command:
 /global/g09-revC/l1.exe /scratch/cn410107.137191/Gau-43770.inp -scrdir=/scratch/cn410107.137191/
 Entering Link 1 = /global/g09-revC/l1.exe PID=     43771.
  
 Copyright (c) 1988,1990,1992,1993,1995,1998,2003,2009,2011,
            Gaussian, Inc.  All Rights Reserved.
  
 This is part of the Gaussian(R) 09 program.  It is based on
 the Gaussian(R) 03 system (copyright 2003, Gaussian, Inc.),
 the Gaussian(R) 98 system (copyright 1998, Gaussian, Inc.),
 the Gaussian(R) 94 system (copyright 1995, Gaussian, Inc.),
 the Gaussian 92(TM) system (copyright 1992, Gaussian, Inc.),
 the Gaussian 90(TM) system (copyright 1990, Gaussian, Inc.),
 the Gaussian 88(TM) system (copyright 1988, Gaussian, Inc.),
 the Gaussian 86(TM) system (copyright 1986, Carnegie Mellon
 University), and the Gaussian 82(TM) system (copyright 1983,
 Carnegie Mellon University). Gaussian is a federally registered
 trademark of Gaussian, Inc.
  
 This software contains proprietary and confidential information,
 including trade secrets, belonging to Gaussian, Inc.
  
 This software is provided under written license and may be
 used, copied, transmitted, or stored only in accord with that
 written license.
  
 The following legend is applicable only to US Government
 contracts under FAR:
  
                    RESTRICTED RIGHTS LEGEND
  
 Use, reproduction and disclosure by the US Government is
 subject to restrictions as set forth in subparagraphs (a)
 and (c) of the Commercial Computer Software - Restricted
 Rights clause in FAR 52.227-19.
  
 Gaussian, Inc.
 340 Quinnipiac St., Bldg. 40, Wallingford CT 06492
  
  
 ---------------------------------------------------------------
 Warning -- This program may not be used in any manner that
 competes with the business of Gaussian, Inc. or will provide
 assistance to any competitor of Gaussian, Inc.  The licensee
 of this program is prohibited from giving any competitor of
 Gaussian, Inc. access to this program.  By using this program,
 the user acknowledges that Gaussian, Inc. is engaged in the
 business of creating and licensing software in the field of
 computational chemistry and represents and warrants to the
 licensee that it is not a competitor of Gaussian, Inc. and that
 it will not use this program in any manner prohibited above.
 ---------------------------------------------------------------
  

 Cite this work as:
 Gaussian 09, Revision C.01,
 M. J. Frisch, G. W. Trucks, H. B. Schlegel, G. E. Scuseria, 
 M. A. Robb, J. R. Cheeseman, G. Scalmani, V. Barone, B. Mennucci, 
 G. A. Petersson, H. Nakatsuji, M. Caricato, X. Li, H. P. Hratchian, 
 A. F. Izmaylov, J. Bloino, G. Zheng, J. L. Sonnenberg, M. Hada, 
 M. Ehara, K. Toyota, R. Fukuda, J. Hasegawa, M. Ishida, T. Nakajima, 
 Y. Honda, O. Kitao, H. Nakai, T. Vreven, J. A. Montgomery, Jr., 
 J. E. Peralta, F. Ogliaro, M. Bearpark, J. J. Heyd, E. Brothers, 
 K. N. Kudin, V. N. Staroverov, T. Keith, R. Kobayashi, J. Normand, 
 K. Raghavachari, A. Rendell, J. C. Burant, S. S. Iyengar, J. Tomasi, 
 M. Cossi, N. Rega, J. M. Millam, M. Klene, J. E. Knox, J. B. Cross, 
 V. Bakken, C. Adamo, J. Jaramillo, R. Gomperts, R. E. Stratmann, 
 O. Yazyev, A. J. Austin, R. Cammi, C. Pomelli, J. W. Ochterski, 
 R. L. Martin, K. Morokuma, V. G. Zakrzewski, G. A. Voth, 
 P. Salvador, J. J. Dannenberg, S. Dapprich, A. D. Daniels, 
 O. Farkas, J. B. Foresman, J. V. Ortiz, J. Cioslowski, 
 and D. J. Fox, Gaussian, Inc., Wallingford CT, 2010.
 
 ******************************************
 Gaussian 09:  EM64L-G09RevC.01 23-Sep-2011
                22-Sep-2018 
 ******************************************
 %nproc=2
 Will use up to    2 processors via shared memory.
 %mem=1GB
 -------------------
 #HF STO-3G opt freq
 -------------------
 1/18=20,19=15,38=1/1,3;
 2/9=110,12=2,17=6,18=5,40=1/2;
 3/6=3,11=9,16=1,25=1,30=1,71=1/1,2,3;
 4//1;
 5/5=2,38=5/2;
 6/7=2,8=2,9=2,10=2,28=1/1;
 7//1,2,3,16;
 1/18=20,19=15/3(2);
 2/9=110/2;
 99//99;
 2/9=110/2;
 3/6=3,11=9,16=1,25=1,30=1,71=1/1,2,3;
 4/5=5,16=3/1;
 5/5=2,38=5/2;
 7//1,2,3,16;
 1/18=20,19=15/3(-5);
 2/9=110/2;
 6/7=2,8=2,9=2,10=2,19=2,28=1/1;
 99/9=1/99;
 -------------------
 Formic Acid Monomer
 -------------------
 Charge =  0 Multiplicity = 1
 Symbolic Z-Matrix:
 C1
 O2                   C1    1.2 
 O3                   C1    1.45     O2    120. 
 H4                   C1    1.       O3    120.     O2    180.     0
 H5                   O3    0.98     C1    120.     O2    0.       0
 

 GradGradGradGradGradGradGradGradGradGradGradGradGradGradGradGradGradGrad
 Berny optimization.
 Initialization pass.
                           ----------------------------
                           !    Initial Parameters    !
                           ! (Angstroms and Degrees)  !
 --------------------------                            --------------------------
 ! Name  Definition              Value          Derivative Info.                !
 --------------------------------------------------------------------------------
 ! R1    R(1,2)                  1.2            estimate D2E/DX2                !
 ! R2    R(1,3)                  1.45           estimate D2E/DX2                !
 ! R3    R(1,4)                  1.0            estimate D2E/DX2                !
 ! R4    R(3,5)                  0.98           estimate D2E/DX2                !
 ! A1    A(2,1,3)              120.0            estimate D2E/DX2                !
 ! A2    A(2,1,4)              120.0            estimate D2E/DX2                !
 ! A3    A(3,1,4)              120.0            estimate D2E/DX2                !
 ! A4    A(1,3,5)              120.0            estimate D2E/DX2                !
 ! D1    D(2,1,3,4)            180.0            estimate D2E/DX2                !
 ! D2    D(2,1,3,5)              0.0            estimate D2E/DX2                !
 ! D3    D(4,1,3,5)            180.0            estimate D2E/DX2                !
 --------------------------------------------------------------------------------
 Trust Radius=3.00D-01 FncErr=1.00D-07 GrdErr=1.00D-07
 Number of steps in this run=     21 maximum allowed number of steps=    100.
 GradGradGradGradGradGradGradGradGradGradGradGradGradGradGradGradGradGrad

                          Input orientation:                          
 ---------------------------------------------------------------------
 Center     Atomic      Atomic             Coordinates (Angstroms)
 Number     Number       Type             X           Y           Z
 ---------------------------------------------------------------------
      1          6           0        0.000000    0.000000    0.000000
      2          8           0        0.000000    0.000000    1.200000
      3          8           0        1.255737    0.000000   -0.725000
      4          1           0       -0.866025    0.000000   -0.500000
      5          1           0        2.104442    0.000000   -0.235000
 ---------------------------------------------------------------------
                    Distance matrix (angstroms):
                    1          2          3          4          5
     1  C    0.000000
     2  O    1.200000   0.000000
     3  O    1.450000   2.298369   0.000000
     4  H    1.000000   1.907878   2.133659   0.000000
     5  H    2.117522   2.547136   0.980000   2.982264   0.000000
 Stoichiometry    CH2O2
 Framework group  CS[SG(CH2O2)]
 Deg. of freedom     7
 Full point group                 CS      NOp   2
 Largest Abelian subgroup         CS      NOp   2
 Largest concise Abelian subgroup C1      NOp   1
                         Standard orientation:                         
 ---------------------------------------------------------------------
 Center     Atomic      Atomic             Coordinates (Angstroms)
 Number     Number       Type             X           Y           Z
 ---------------------------------------------------------------------
      1          6           0        0.000000    0.487215    0.000000
      2          8           0        1.158043    0.172672    0.000000
      3          8           0       -1.028803   -0.534579    0.000000
      4          1           0       -0.255516    1.454020    0.000000
      5          1           0       -0.778398   -1.482048    0.000000
 ---------------------------------------------------------------------
 Rotational constants (GHZ):     70.9745063     11.4459424      9.8564145
 Standard basis: STO-3G (5D, 7F)
 There are    14 symmetry adapted basis functions of A'  symmetry.
 There are     3 symmetry adapted basis functions of A"  symmetry.
 Integral buffers will be    131072 words long.
 Raffenetti 1 integral format.
 Two-electron integral symmetry is turned on.
    17 basis functions,    51 primitive gaussians,    17 cartesian basis functions
    12 alpha electrons       12 beta electrons
       nuclear repulsion energy        68.4568578970 Hartrees.
 NAtoms=    5 NActive=    5 NUniq=    5 SFac= 1.00D+00 NAtFMM=   60 NAOKFM=F Big=F
 One-electron integrals computed using PRISM.
 NBasis=    17 RedAO= T  NBF=    14     3
 NBsUse=    17 1.00D-06 NBFU=    14     3
 Harris functional with IExCor=  205 diagonalized for initial guess.
 ExpMin= 1.69D-01 ExpMax= 1.31D+02 ExpMxC= 1.31D+02 IAcc=1 IRadAn=         1 AccDes= 0.00D+00
 HarFok:  IExCor=  205 AccDes= 0.00D+00 IRadAn=         1 IDoV= 1
 ScaDFX=  1.000000  1.000000  1.000000  1.000000
 FoFCou: FMM=F IPFlag=           0 FMFlag=      100000 FMFlg1=           0
         NFxFlg=           0 DoJE=T BraDBF=F KetDBF=T FulRan=T
         Omega=  0.000000  0.000000  1.000000  0.000000  0.000000 ICntrl=     500 IOpCl=  0
         NMat0=    1 NMatS0=    1 NMatT0=    0 NMatD0=    1 NMtDS0=    0 NMtDT0=    0
         I1Cent=           4 NGrid=           0.
 Petite list used in FoFCou.
 Initial guess orbital symmetries:
       Occupied  (A') (A') (A') (A') (A') (A') (A') (A') (A") (A')
                 (A") (A')
       Virtual   (A") (A') (A') (A') (A')
 The electronic state of the initial guess is 1-A'.
 Requested convergence on RMS density matrix=1.00D-08 within 128 cycles.
 Requested convergence on MAX density matrix=1.00D-06.
 Requested convergence on             energy=1.00D-06.
 No special actions if energy rises.
 Keep R1 ints in memory in canonical form, NReq=831559.
 SCF Done:  E(RHF) =  -186.186598643     A.U. after   12 cycles
             Convg  =    0.4097D-08             -V/T =  2.0084

 **********************************************************************

            Population analysis using the SCF density.

 **********************************************************************

 Orbital symmetries:
       Occupied  (A') (A') (A') (A') (A') (A') (A') (A') (A") (A')
                 (A") (A')
       Virtual   (A") (A') (A') (A') (A')
 The electronic state is 1-A'.
 Alpha  occ. eigenvalues --  -20.29356 -20.27309 -11.18170  -1.37322  -1.25939
 Alpha  occ. eigenvalues --   -0.82246  -0.65231  -0.57990  -0.51676  -0.45535
 Alpha  occ. eigenvalues --   -0.35991  -0.35660
 Alpha virt. eigenvalues --    0.29368   0.49243   0.69695   0.80687   0.94862
          Condensed to atoms (all electrons):
              1          2          3          4          5
     1  C    4.690465   0.445611   0.272818   0.388346  -0.030403
     2  O    0.445611   7.837338  -0.019488  -0.029013   0.000574
     3  O    0.272818  -0.019488   7.820215  -0.020061   0.260242
     4  H    0.388346  -0.029013  -0.020061   0.558019   0.002467
     5  H   -0.030403   0.000574   0.260242   0.002467   0.551781
 Mulliken atomic charges:
              1
     1  C    0.233164
     2  O   -0.235021
     3  O   -0.313725
     4  H    0.100243
     5  H    0.215339
 Sum of Mulliken atomic charges =   0.00000
 Mulliken charges with hydrogens summed into heavy atoms:
              1
     1  C    0.333407
     2  O   -0.235021
     3  O   -0.098386
 Sum of Mulliken charges with hydrogens summed into heavy atoms =   0.00000
 Electronic spatial extent (au):  <R**2>=            134.6222
 Charge=              0.0000 electrons
 Dipole moment (field-independent basis, Debye):
    X=             -0.4903    Y=             -0.1248    Z=              0.0000  Tot=              0.5059
 Quadrupole moment (field-independent basis, Debye-Ang):
   XX=            -19.6184   YY=            -11.5562   ZZ=            -14.7980
   XY=              0.0269   XZ=              0.0000   YZ=              0.0000
 Traceless Quadrupole moment (field-independent basis, Debye-Ang):
   XX=             -4.2942   YY=              3.7680   ZZ=              0.5262
   XY=              0.0269   XZ=              0.0000   YZ=              0.0000
 Octapole moment (field-independent basis, Debye-Ang**2):
  XXX=              0.1548  YYY=             -5.5612  ZZZ=              0.0000  XYY=             -2.0753
  XXY=             -0.9961  XXZ=              0.0000  XZZ=              0.7336  YZZ=             -0.7046
  YYZ=              0.0000  XYZ=              0.0000
 Hexadecapole moment (field-independent basis, Debye-Ang**3):
 XXXX=            -84.7163 YYYY=            -32.2558 ZZZZ=             -8.8081 XXXY=            -12.7105
 XXXZ=              0.0000 YYYX=             -8.3346 YYYZ=              0.0000 ZZZX=              0.0000
 ZZZY=              0.0000 XXYY=            -18.6088 XXZZ=            -14.0409 YYZZ=             -8.5982
 XXYZ=              0.0000 YYXZ=              0.0000 ZZXY=             -3.8565
 N-N= 6.845685789700D+01 E-N=-5.776681703915D+02  KE= 1.846297795996D+02
 Symmetry A'   KE= 1.760743180160D+02
 Symmetry A"   KE= 8.555461583543D+00
 Calling FoFJK, ICntrl=      2127 FMM=F ISym2X=1 I1Cent= 0 IOpClX= 0 NMat=1 NMatS=1 NMatT=0.
 ***** Axes restored to original set *****
 -------------------------------------------------------------------
 Center     Atomic                   Forces (Hartrees/Bohr)
 Number     Number              X              Y              Z
 -------------------------------------------------------------------
      1        6           0.165948695    0.000000000    0.052939547
      2        8          -0.000094234    0.000000000    0.042355905
      3        8          -0.068282629    0.000000000   -0.049241586
      4        1          -0.082812058    0.000000000   -0.085178035
      5        1          -0.014759773    0.000000000    0.039124168
 -------------------------------------------------------------------
 Cartesian Forces:  Max     0.165948695 RMS     0.060599524

 GradGradGradGradGradGradGradGradGradGradGradGradGradGradGradGradGradGrad
 Berny optimization.
 Internal  Forces:  Max     0.114306364 RMS     0.050196899
 Search for a local minimum.
 Step number   1 out of a maximum of   21
 All quantities printed in internal units (Hartrees-Bohrs-Radians)
 Mixed Optimization -- RFO/linear search
 Second derivative matrix not updated -- first step.
 The second derivative matrix:
                          R1        R2        R3        R4        A1
           R1           1.04823
           R2           0.00000   0.38245
           R3           0.00000   0.00000   0.47688
           R4           0.00000   0.00000   0.00000   0.51385
           A1           0.00000   0.00000   0.00000   0.00000   0.25000
           A2           0.00000   0.00000   0.00000   0.00000   0.00000
           A3           0.00000   0.00000   0.00000   0.00000   0.00000
           A4           0.00000   0.00000   0.00000   0.00000   0.00000
           D1           0.00000   0.00000   0.00000   0.00000   0.00000
           D2           0.00000   0.00000   0.00000   0.00000   0.00000
           D3           0.00000   0.00000   0.00000   0.00000   0.00000
                          A2        A3        A4        D1        D2
           A2           0.16000
           A3           0.00000   0.16000
           A4           0.00000   0.00000   0.16000
           D1           0.00000   0.00000   0.00000   0.01030
           D2           0.00000   0.00000   0.00000   0.00000   0.01030
           D3           0.00000   0.00000   0.00000   0.00000   0.00000
                          D3
           D3           0.01030
 ITU=  0
     Eigenvalues ---    0.01030   0.01030   0.16000   0.16000   0.22000
     Eigenvalues ---    0.38245   0.47688   0.51385   1.04823
 RFO step:  Lambda=-7.09440185D-02 EMin= 1.03037616D-02
 Linear search not attempted -- first point.
 Maximum step size (   0.300) exceeded in Quadratic search.
    -- Step size scaled by   0.641
 Iteration  1 RMS(Cart)=  0.10150273 RMS(Int)=  0.00646650
 Iteration  2 RMS(Cart)=  0.00937733 RMS(Int)=  0.00004631
 Iteration  3 RMS(Cart)=  0.00004603 RMS(Int)=  0.00000000
 Iteration  4 RMS(Cart)=  0.00000000 RMS(Int)=  0.00000000
 ClnCor:  largest displacement from symmetrization is 1.31D-10 for atom     1.
 Variable       Old X    -DE/DX   Delta X   Delta X   Delta X     New X
                                 (Linear)    (Quad)   (Total)
    R1        2.26767   0.04236   0.00000   0.02427   0.02427   2.29194
    R2        2.74010  -0.06686   0.00000  -0.09456  -0.09456   2.64554
    R3        1.88973   0.11431   0.00000   0.13380   0.13380   2.02353
    R4        1.85193   0.00678   0.00000   0.00743   0.00743   1.85937
    A1        2.09440   0.02053   0.00000   0.04524   0.04524   2.13964
    A2        2.09440   0.02031   0.00000   0.06228   0.06228   2.15668
    A3        2.09440  -0.04084   0.00000  -0.10752  -0.10752   1.98687
    A4        2.09440  -0.07642   0.00000  -0.21219  -0.21219   1.88221
    D1        3.14159   0.00000   0.00000   0.00000   0.00000   3.14159
    D2        0.00000   0.00000   0.00000   0.00000   0.00000   0.00000
    D3        3.14159   0.00000   0.00000   0.00000   0.00000   3.14159
         Item               Value     Threshold  Converged?
 Maximum Force            0.114306     0.000450     NO 
 RMS     Force            0.050197     0.000300     NO 
 Maximum Displacement     0.216998     0.001800     NO 
 RMS     Displacement     0.109119     0.001200     NO 
 Predicted change in Energy=-3.409979D-02
 GradGradGradGradGradGradGradGradGradGradGradGradGradGradGradGradGradGrad

                          Input orientation:                          
 ---------------------------------------------------------------------
 Center     Atomic      Atomic             Coordinates (Angstroms)
 Number     Number       Type             X           Y           Z
 ---------------------------------------------------------------------
      1          6           0        0.055118    0.000000    0.010576
      2          8           0        0.083589    0.000000    1.223084
      3          8           0        1.216593    0.000000   -0.771001
      4          1           0       -0.850758    0.000000   -0.560400
      5          1           0        1.989612    0.000000   -0.162258
 ---------------------------------------------------------------------
                    Distance matrix (angstroms):
                    1          2          3          4          5
     1  C    0.000000
     2  O    1.212843   0.000000
     3  O    1.399959   2.293486   0.000000
     4  H    1.070806   2.013411   2.078050   0.000000
     5  H    1.942199   2.356289   0.983934   2.868138   0.000000
 Stoichiometry    CH2O2
 Framework group  CS[SG(CH2O2)]
 Deg. of freedom     7
 Full point group                 CS      NOp   2
 Largest Abelian subgroup         CS      NOp   2
 Largest concise Abelian subgroup C1      NOp   1
                         Standard orientation:                         
 ---------------------------------------------------------------------
 Center     Atomic      Atomic             Coordinates (Angstroms)
 Number     Number       Type             X           Y           Z
 ---------------------------------------------------------------------
      1          6           0        0.000000    0.453715    0.000000
      2          8           0        1.167472    0.125085    0.000000
      3          8           0       -1.045483   -0.477334    0.000000
      4          1           0       -0.328179    1.472991    0.000000
      5          1           0       -0.647732   -1.377290    0.000000
 ---------------------------------------------------------------------
 Rotational constants (GHZ):     72.6533863     11.6709998     10.0556636
 Standard basis: STO-3G (5D, 7F)
 There are    14 symmetry adapted basis functions of A'  symmetry.
 There are     3 symmetry adapted basis functions of A"  symmetry.
 Integral buffers will be    131072 words long.
 Raffenetti 1 integral format.
 Two-electron integral symmetry is turned on.
    17 basis functions,    51 primitive gaussians,    17 cartesian basis functions
    12 alpha electrons       12 beta electrons
       nuclear repulsion energy        68.8768506834 Hartrees.
 NAtoms=    5 NActive=    5 NUniq=    5 SFac= 1.00D+00 NAtFMM=   60 NAOKFM=F Big=F
 One-electron integrals computed using PRISM.
 NBasis=    17 RedAO= T  NBF=    14     3
 NBsUse=    17 1.00D-06 NBFU=    14     3
 Initial guess read from the read-write file.
 B after Tr=     0.000000    0.000000    0.000000
         Rot=    1.000000    0.000000    0.000000    0.000000 Ang=   0.00 deg.
 Initial guess orbital symmetries:
       Occupied  (A') (A') (A') (A') (A') (A') (A') (A') (A") (A')
                 (A") (A')
       Virtual   (A") (A') (A') (A') (A')
 Harris functional with IExCor=  205 diagonalized for initial guess.
 ExpMin= 1.69D-01 ExpMax= 1.31D+02 ExpMxC= 1.31D+02 IAcc=1 IRadAn=         1 AccDes= 0.00D+00
 HarFok:  IExCor=  205 AccDes= 0.00D+00 IRadAn=         1 IDoV= 1
 ScaDFX=  1.000000  1.000000  1.000000  1.000000
 FoFCou: FMM=F IPFlag=           0 FMFlag=      100000 FMFlg1=           0
         NFxFlg=           0 DoJE=T BraDBF=F KetDBF=T FulRan=T
         Omega=  0.000000  0.000000  1.000000  0.000000  0.000000 ICntrl=     500 IOpCl=  0
         NMat0=    1 NMatS0=    1 NMatT0=    0 NMatD0=    1 NMtDS0=    0 NMtDT0=    0
         I1Cent=           4 NGrid=           0.
 Petite list used in FoFCou.
 Requested convergence on RMS density matrix=1.00D-08 within 128 cycles.
 Requested convergence on MAX density matrix=1.00D-06.
 Requested convergence on             energy=1.00D-06.
 No special actions if energy rises.
 Keep R1 ints in memory in canonical form, NReq=831559.
 SCF Done:  E(RHF) =  -186.215552190     A.U. after   11 cycles
             Convg  =    0.2547D-08             -V/T =  2.0088
 Calling FoFJK, ICntrl=      2127 FMM=F ISym2X=1 I1Cent= 0 IOpClX= 0 NMat=1 NMatS=1 NMatT=0.
 ***** Axes restored to original set *****
 -------------------------------------------------------------------
 Center     Atomic                   Forces (Hartrees/Bohr)
 Number     Number              X              Y              Z
 -------------------------------------------------------------------
      1        6           0.040792658    0.000000000    0.020169121
      2        8           0.001329731    0.000000000    0.006727243
      3        8          -0.021287026    0.000000000   -0.013993579
      4        1          -0.019476867    0.000000000   -0.024865562
      5        1          -0.001358496    0.000000000    0.011962776
 -------------------------------------------------------------------
 Cartesian Forces:  Max     0.040792658 RMS     0.016143965

 GradGradGradGradGradGradGradGradGradGradGradGradGradGradGradGradGradGrad
 Berny optimization.
 Using GEDIIS/GDIIS optimizer.
 Internal  Forces:  Max     0.029735798 RMS     0.013211417
 Search for a local minimum.
 Step number   2 out of a maximum of   21
 All quantities printed in internal units (Hartrees-Bohrs-Radians)
 Mixed Optimization -- RFO/linear search
 Update second derivatives using D2CorX and points    1    2
 DE= -2.90D-02 DEPred=-3.41D-02 R= 8.49D-01
 SS=  1.41D+00  RLast= 3.00D-01 DXNew= 5.0454D-01 9.0000D-01
 Trust test= 8.49D-01 RLast= 3.00D-01 DXMaxT set to 5.05D-01
 The second derivative matrix:
                          R1        R2        R3        R4        A1
           R1           1.05778
           R2          -0.01207   0.39754
           R3           0.01891  -0.02333   0.51236
           R4          -0.00379   0.00541  -0.00957   0.51321
           A1           0.00350  -0.00434   0.00665  -0.00169   0.25124
           A2           0.00192  -0.00221   0.00308  -0.00151   0.00060
           A3          -0.00996   0.01301  -0.02113   0.00252  -0.00386
           A4          -0.02326   0.03065  -0.05023   0.00493  -0.00915
           D1           0.00000   0.00000   0.00000   0.00000   0.00000
           D2           0.00000   0.00000   0.00000   0.00000   0.00000
           D3           0.00000   0.00000   0.00000   0.00000   0.00000
                          A2        A3        A4        D1        D2
           A2           0.16012
           A3          -0.00250   0.16944
           A4          -0.00617   0.02138   0.20799
           D1           0.00000   0.00000   0.00000   0.01030
           D2           0.00000   0.00000   0.00000   0.00000   0.01030
           D3           0.00000   0.00000   0.00000   0.00000   0.00000
                          D3
           D3           0.01030
 ITU=  1  0
 Use linear search instead of GDIIS.
     Eigenvalues ---    0.01030   0.01030   0.15942   0.19729   0.22741
     Eigenvalues ---    0.39522   0.50713   0.53379   1.05967
 RFO step:  Lambda=-2.79531987D-04 EMin= 1.03037616D-02
 Quartic linear search produced a step of  0.34858.
 Iteration  1 RMS(Cart)=  0.03940421 RMS(Int)=  0.00060643
 Iteration  2 RMS(Cart)=  0.00072468 RMS(Int)=  0.00000011
 Iteration  3 RMS(Cart)=  0.00000011 RMS(Int)=  0.00000000
 ClnCor:  largest displacement from symmetrization is 6.50D-12 for atom     1.
 Variable       Old X    -DE/DX   Delta X   Delta X   Delta X     New X
                                 (Linear)    (Quad)   (Total)
    R1        2.29194   0.00676   0.00846  -0.00540   0.00306   2.29500
    R2        2.64554  -0.01765  -0.03296  -0.00049  -0.03345   2.61209
    R3        2.02353   0.02974   0.04664  -0.00029   0.04636   2.06989
    R4        1.85937   0.00633   0.00259   0.01198   0.01457   1.87393
    A1        2.13964   0.00539   0.01577  -0.00029   0.01548   2.15511
    A2        2.15668   0.00808   0.02171   0.02202   0.04373   2.20041
    A3        1.98687  -0.01347  -0.03748  -0.02173  -0.05921   1.92766
    A4        1.88221  -0.01904  -0.07396   0.01173  -0.06224   1.81997
    D1        3.14159   0.00000   0.00000   0.00000   0.00000   3.14159
    D2        0.00000   0.00000   0.00000   0.00000   0.00000   0.00000
    D3        3.14159   0.00000   0.00000   0.00000   0.00000   3.14159
         Item               Value     Threshold  Converged?
 Maximum Force            0.029736     0.000450     NO 
 RMS     Force            0.013211     0.000300     NO 
 Maximum Displacement     0.069941     0.001800     NO 
 RMS     Displacement     0.039866     0.001200     NO 
 Predicted change in Energy=-2.332594D-03
 GradGradGradGradGradGradGradGradGradGradGradGradGradGradGradGradGradGrad

                          Input orientation:                          
 ---------------------------------------------------------------------
 Center     Atomic      Atomic             Coordinates (Angstroms)
 Number     Number       Type             X           Y           Z
 ---------------------------------------------------------------------
      1          6           0        0.070272    0.000000    0.021302
      2          8           0        0.114165    0.000000    1.234970
      3          8           0        1.194887    0.000000   -0.782365
      4          1           0       -0.837771    0.000000   -0.591250
      5          1           0        1.952601    0.000000   -0.142656
 ---------------------------------------------------------------------
                    Distance matrix (angstroms):
                    1          2          3          4          5
     1  C    0.000000
     2  O    1.214461   0.000000
     3  O    1.382259   2.288581   0.000000
     4  H    1.095337   2.059433   2.041623   0.000000
     5  H    1.889456   2.297325   0.991644   2.826201   0.000000
 Stoichiometry    CH2O2
 Framework group  CS[SG(CH2O2)]
 Deg. of freedom     7
 Full point group                 CS      NOp   2
 Largest Abelian subgroup         CS      NOp   2
 Largest concise Abelian subgroup C1      NOp   1
                         Standard orientation:                         
 ---------------------------------------------------------------------
 Center     Atomic      Atomic             Coordinates (Angstroms)
 Number     Number       Type             X           Y           Z
 ---------------------------------------------------------------------
      1          6           0        0.000000    0.442567    0.000000
      2          8           0        1.169129    0.113850    0.000000
      3          8           0       -1.046095   -0.460940    0.000000
      4          1           0       -0.381270    1.469405    0.000000
      5          1           0       -0.603002   -1.348085    0.000000
 ---------------------------------------------------------------------
 Rotational constants (GHZ):     73.5447611     11.7666198     10.1437022
 Standard basis: STO-3G (5D, 7F)
 There are    14 symmetry adapted basis functions of A'  symmetry.
 There are     3 symmetry adapted basis functions of A"  symmetry.
 Integral buffers will be    131072 words long.
 Raffenetti 1 integral format.
 Two-electron integral symmetry is turned on.
    17 basis functions,    51 primitive gaussians,    17 cartesian basis functions
    12 alpha electrons       12 beta electrons
       nuclear repulsion energy        69.0969167939 Hartrees.
 NAtoms=    5 NActive=    5 NUniq=    5 SFac= 1.00D+00 NAtFMM=   60 NAOKFM=F Big=F
 One-electron integrals computed using PRISM.
 NBasis=    17 RedAO= T  NBF=    14     3
 NBsUse=    17 1.00D-06 NBFU=    14     3
 Initial guess read from the read-write file.
 B after Tr=     0.000000    0.000000    0.000000
         Rot=    1.000000    0.000000    0.000000    0.000000 Ang=   0.00 deg.
 Initial guess orbital symmetries:
       Occupied  (A') (A') (A') (A') (A') (A') (A') (A') (A") (A')
                 (A") (A')
       Virtual   (A") (A') (A') (A') (A')
 Harris functional with IExCor=  205 diagonalized for initial guess.
 ExpMin= 1.69D-01 ExpMax= 1.31D+02 ExpMxC= 1.31D+02 IAcc=1 IRadAn=         1 AccDes= 0.00D+00
 HarFok:  IExCor=  205 AccDes= 0.00D+00 IRadAn=         1 IDoV= 1
 ScaDFX=  1.000000  1.000000  1.000000  1.000000
 FoFCou: FMM=F IPFlag=           0 FMFlag=      100000 FMFlg1=           0
         NFxFlg=           0 DoJE=T BraDBF=F KetDBF=T FulRan=T
         Omega=  0.000000  0.000000  1.000000  0.000000  0.000000 ICntrl=     500 IOpCl=  0
         NMat0=    1 NMatS0=    1 NMatT0=    0 NMatD0=    1 NMtDS0=    0 NMtDT0=    0
         I1Cent=           4 NGrid=           0.
 Petite list used in FoFCou.
 Requested convergence on RMS density matrix=1.00D-08 within 128 cycles.
 Requested convergence on MAX density matrix=1.00D-06.
 Requested convergence on             energy=1.00D-06.
 No special actions if energy rises.
 Keep R1 ints in memory in canonical form, NReq=831559.
 SCF Done:  E(RHF) =  -186.217801585     A.U. after   10 cycles
             Convg  =    0.5105D-08             -V/T =  2.0088
 Calling FoFJK, ICntrl=      2127 FMM=F ISym2X=1 I1Cent= 0 IOpClX= 0 NMat=1 NMatS=1 NMatT=0.
 ***** Axes restored to original set *****
 -------------------------------------------------------------------
 Center     Atomic                   Forces (Hartrees/Bohr)
 Number     Number              X              Y              Z
 -------------------------------------------------------------------
      1        6           0.002363404    0.000000000    0.005279117
      2        8          -0.000295274    0.000000000    0.000157993
      3        8           0.004212636    0.000000000    0.000373358
      4        1          -0.006092427    0.000000000   -0.003773433
      5        1          -0.000188339    0.000000000   -0.002037034
 -------------------------------------------------------------------
 Cartesian Forces:  Max     0.006092427 RMS     0.002670756

 GradGradGradGradGradGradGradGradGradGradGradGradGradGradGradGradGradGrad
 Berny optimization.
 Using GEDIIS/GDIIS optimizer.
 Internal  Forces:  Max     0.007160913 RMS     0.002678563
 Search for a local minimum.
 Step number   3 out of a maximum of   21
 All quantities printed in internal units (Hartrees-Bohrs-Radians)
 Mixed Optimization -- RFO/linear search
 Update second derivatives using D2CorX and points    1    2    3
 DE= -2.25D-03 DEPred=-2.33D-03 R= 9.64D-01
 SS=  1.41D+00  RLast= 1.14D-01 DXNew= 8.4853D-01 3.4233D-01
 Trust test= 9.64D-01 RLast= 1.14D-01 DXMaxT set to 5.05D-01
 The second derivative matrix:
                          R1        R2        R3        R4        A1
           R1           1.05704
           R2          -0.01891   0.43591
           R3           0.00515  -0.01751   0.42867
           R4          -0.00154  -0.00640  -0.01064   0.51680
           A1           0.00303  -0.00882  -0.00248  -0.00024   0.25092
           A2           0.00268  -0.01216  -0.00526   0.00159   0.00108
           A3          -0.01018   0.02727  -0.00337  -0.00198  -0.00397
           A4          -0.02829   0.06538  -0.03737  -0.00584  -0.01244
           D1           0.00000   0.00000   0.00000   0.00000   0.00000
           D2           0.00000   0.00000   0.00000   0.00000   0.00000
           D3           0.00000   0.00000   0.00000   0.00000   0.00000
                          A2        A3        A4        D1        D2
           A2           0.16214
           A3          -0.00493   0.17184
           A4          -0.01458   0.03289   0.23874
           D1           0.00000   0.00000   0.00000   0.01030
           D2           0.00000   0.00000   0.00000   0.00000   0.01030
           D3           0.00000   0.00000   0.00000   0.00000   0.00000
                          D3
           D3           0.01030
 ITU=  1  1  0
 Use linear search instead of GDIIS.
     Eigenvalues ---    0.01030   0.01030   0.15697   0.21003   0.23605
     Eigenvalues ---    0.41471   0.47696   0.51856   1.05903
 RFO step:  Lambda=-2.02558785D-04 EMin= 1.03037616D-02
 Quartic linear search produced a step of -0.00471.
 Iteration  1 RMS(Cart)=  0.00965765 RMS(Int)=  0.00003703
 Iteration  2 RMS(Cart)=  0.00003486 RMS(Int)=  0.00000000
 Iteration  3 RMS(Cart)=  0.00000000 RMS(Int)=  0.00000000
 ClnCor:  largest displacement from symmetrization is 1.51D-12 for atom     1.
 Variable       Old X    -DE/DX   Delta X   Delta X   Delta X     New X
                                 (Linear)    (Quad)   (Total)
    R1        2.29500   0.00015  -0.00001   0.00052   0.00050   2.29550
    R2        2.61209   0.00424   0.00016   0.00865   0.00881   2.62090
    R3        2.06989   0.00716  -0.00022   0.01826   0.01805   2.08793
    R4        1.87393  -0.00146  -0.00007  -0.00214  -0.00221   1.87173
    A1        2.15511   0.00027  -0.00007   0.00234   0.00227   2.15738
    A2        2.20041  -0.00042  -0.00021   0.00011  -0.00009   2.20032
    A3        1.92766   0.00015   0.00028  -0.00245  -0.00218   1.92548
    A4        1.81997   0.00269   0.00029   0.01179   0.01208   1.83205
    D1        3.14159   0.00000   0.00000   0.00000   0.00000   3.14159
    D2        0.00000   0.00000   0.00000   0.00000   0.00000   0.00000
    D3        3.14159   0.00000   0.00000   0.00000   0.00000   3.14159
         Item               Value     Threshold  Converged?
 Maximum Force            0.007161     0.000450     NO 
 RMS     Force            0.002679     0.000300     NO 
 Maximum Displacement     0.018230     0.001800     NO 
 RMS     Displacement     0.009644     0.001200     NO 
 Predicted change in Energy=-1.013884D-04
 GradGradGradGradGradGradGradGradGradGradGradGradGradGradGradGradGradGrad

                          Input orientation:                          
 ---------------------------------------------------------------------
 Center     Atomic      Atomic             Coordinates (Angstroms)
 Number     Number       Type             X           Y           Z
 ---------------------------------------------------------------------
      1          6           0        0.069190    0.000000    0.025359
      2          8           0        0.109182    0.000000    1.239427
      3          8           0        1.198365    0.000000   -0.779942
      4          1           0       -0.844832    0.000000   -0.595396
      5          1           0        1.962248    0.000000   -0.149448
 ---------------------------------------------------------------------
                    Distance matrix (angstroms):
                    1          2          3          4          5
     1  C    0.000000
     2  O    1.214727   0.000000
     3  O    1.386919   2.294378   0.000000
     4  H    1.104886   2.068023   2.051514   0.000000
     5  H    1.901111   2.315777   0.990475   2.842282   0.000000
 Stoichiometry    CH2O2
 Framework group  CS[SG(CH2O2)]
 Deg. of freedom     7
 Full point group                 CS      NOp   2
 Largest Abelian subgroup         CS      NOp   2
 Largest concise Abelian subgroup C1      NOp   1
                         Standard orientation:                         
 ---------------------------------------------------------------------
 Center     Atomic      Atomic             Coordinates (Angstroms)
 Number     Number       Type             X           Y           Z
 ---------------------------------------------------------------------
      1          6           0        0.000000    0.442690    0.000000
      2          8           0        1.171365    0.121028    0.000000
      3          8           0       -1.046151   -0.467866    0.000000
      4          1           0       -0.390797    1.476155    0.000000
      5          1           0       -0.610913   -1.357590    0.000000
 ---------------------------------------------------------------------
 Rotational constants (GHZ):     73.2607063     11.6978692     10.0872002
 Standard basis: STO-3G (5D, 7F)
 There are    14 symmetry adapted basis functions of A'  symmetry.
 There are     3 symmetry adapted basis functions of A"  symmetry.
 Integral buffers will be    131072 words long.
 Raffenetti 1 integral format.
 Two-electron integral symmetry is turned on.
    17 basis functions,    51 primitive gaussians,    17 cartesian basis functions
    12 alpha electrons       12 beta electrons
       nuclear repulsion energy        68.9286048946 Hartrees.
 NAtoms=    5 NActive=    5 NUniq=    5 SFac= 1.00D+00 NAtFMM=   60 NAOKFM=F Big=F
 One-electron integrals computed using PRISM.
 NBasis=    17 RedAO= T  NBF=    14     3
 NBsUse=    17 1.00D-06 NBFU=    14     3
 Initial guess read from the read-write file.
 B after Tr=     0.000000    0.000000    0.000000
         Rot=    1.000000    0.000000    0.000000    0.000000 Ang=   0.00 deg.
 Initial guess orbital symmetries:
       Occupied  (A') (A') (A') (A') (A') (A') (A') (A') (A") (A')
                 (A") (A')
       Virtual   (A") (A') (A') (A') (A')
 Requested convergence on RMS density matrix=1.00D-08 within 128 cycles.
 Requested convergence on MAX density matrix=1.00D-06.
 Requested convergence on             energy=1.00D-06.
 No special actions if energy rises.
 Keep R1 ints in memory in canonical form, NReq=831559.
 SCF Done:  E(RHF) =  -186.217878036     A.U. after   10 cycles
             Convg  =    0.2659D-08             -V/T =  2.0089
 Calling FoFJK, ICntrl=      2127 FMM=F ISym2X=1 I1Cent= 0 IOpClX= 0 NMat=1 NMatS=1 NMatT=0.
 ***** Axes restored to original set *****
 -------------------------------------------------------------------
 Center     Atomic                   Forces (Hartrees/Bohr)
 Number     Number              X              Y              Z
 -------------------------------------------------------------------
      1        6           0.000797396    0.000000000    0.000164086
      2        8          -0.000234791    0.000000000   -0.001347838
      3        8          -0.000960646    0.000000000    0.000049952
      4        1           0.000925622    0.000000000    0.000763304
      5        1          -0.000527581    0.000000000    0.000370496
 -------------------------------------------------------------------
 Cartesian Forces:  Max     0.001347838 RMS     0.000595254

 GradGradGradGradGradGradGradGradGradGradGradGradGradGradGradGradGradGrad
 Berny optimization.
 Using GEDIIS/GDIIS optimizer.
 Internal  Forces:  Max     0.001455784 RMS     0.000789719
 Search for a local minimum.
 Step number   4 out of a maximum of   21
 All quantities printed in internal units (Hartrees-Bohrs-Radians)
 Mixed Optimization -- En-DIIS/RFO-DIIS
 Update second derivatives using D2CorX and points    1    2    3    4
 DE= -7.65D-05 DEPred=-1.01D-04 R= 7.54D-01
 SS=  1.41D+00  RLast= 2.38D-02 DXNew= 8.4853D-01 7.1253D-02
 Trust test= 7.54D-01 RLast= 2.38D-02 DXMaxT set to 5.05D-01
 The second derivative matrix:
                          R1        R2        R3        R4        A1
           R1           1.07025
           R2           0.00760   0.47193
           R3           0.05456   0.02773   0.44774
           R4          -0.00530  -0.00725   0.00051   0.51457
           A1           0.00364  -0.01185  -0.01399   0.00200   0.24969
           A2           0.00417  -0.00923   0.00221   0.00150   0.00142
           A3          -0.01278   0.02560  -0.00431  -0.00338  -0.00343
           A4          -0.01108   0.09128   0.00232  -0.00871  -0.01326
           D1           0.00000   0.00000   0.00000   0.00000   0.00000
           D2           0.00000   0.00000   0.00000   0.00000   0.00000
           D3           0.00000   0.00000   0.00000   0.00000   0.00000
                          A2        A3        A4        D1        D2
           A2           0.16281
           A3          -0.00591   0.17255
           A4          -0.01306   0.03139   0.25584
           D1           0.00000   0.00000   0.00000   0.01030
           D2           0.00000   0.00000   0.00000   0.00000   0.01030
           D3           0.00000   0.00000   0.00000   0.00000   0.00000
                          D3
           D3           0.01030
 ITU=  1  1  1  0
 Use linear search instead of GDIIS.
     Eigenvalues ---    0.01030   0.01030   0.16268   0.21141   0.23721
     Eigenvalues ---    0.43413   0.50771   0.52699   1.07553
 RFO step:  Lambda=-3.51796246D-06 EMin= 1.03037616D-02
 Quartic linear search produced a step of -0.19512.
 Iteration  1 RMS(Cart)=  0.00250178 RMS(Int)=  0.00000367
 Iteration  2 RMS(Cart)=  0.00000324 RMS(Int)=  0.00000000
 Iteration  3 RMS(Cart)=  0.00000000 RMS(Int)=  0.00000000
 ClnCor:  largest displacement from symmetrization is 7.41D-15 for atom     1.
 Variable       Old X    -DE/DX   Delta X   Delta X   Delta X     New X
                                 (Linear)    (Quad)   (Total)
    R1        2.29550  -0.00135  -0.00010  -0.00106  -0.00116   2.29435
    R2        2.62090  -0.00146  -0.00172  -0.00053  -0.00225   2.61865
    R3        2.08793  -0.00119  -0.00352   0.00114  -0.00238   2.08555
    R4        1.87173  -0.00017   0.00043  -0.00086  -0.00043   1.87130
    A1        2.15738   0.00021  -0.00044   0.00096   0.00052   2.15790
    A2        2.20032  -0.00022   0.00002  -0.00161  -0.00159   2.19873
    A3        1.92548   0.00001   0.00042   0.00064   0.00107   1.92655
    A4        1.83205  -0.00116  -0.00236  -0.00167  -0.00403   1.82802
    D1        3.14159   0.00000   0.00000   0.00000   0.00000   3.14159
    D2        0.00000   0.00000   0.00000   0.00000   0.00000   0.00000
    D3        3.14159   0.00000   0.00000   0.00000   0.00000   3.14159
         Item               Value     Threshold  Converged?
 Maximum Force            0.001456     0.000450     NO 
 RMS     Force            0.000790     0.000300     NO 
 Maximum Displacement     0.005205     0.001800     NO 
 RMS     Displacement     0.002502     0.001200     NO 
 Predicted change in Energy=-6.394140D-06
 GradGradGradGradGradGradGradGradGradGradGradGradGradGradGradGradGradGrad

                          Input orientation:                          
 ---------------------------------------------------------------------
 Center     Atomic      Atomic             Coordinates (Angstroms)
 Number     Number       Type             X           Y           Z
 ---------------------------------------------------------------------
      1          6           0        0.070216    0.000000    0.024498
      2          8           0        0.110180    0.000000    1.237955
      3          8           0        1.198006    0.000000   -0.780691
      4          1           0       -0.843742    0.000000   -0.594105
      5          1           0        1.959493    0.000000   -0.147658
 ---------------------------------------------------------------------
                    Distance matrix (angstroms):
                    1          2          3          4          5
     1  C    0.000000
     2  O    1.214115   0.000000
     3  O    1.385727   2.293098   0.000000
     4  H    1.103625   2.065529   2.050256   0.000000
     5  H    1.897105   2.310819   0.990249   2.838564   0.000000
 Stoichiometry    CH2O2
 Framework group  CS[SG(CH2O2)]
 Deg. of freedom     7
 Full point group                 CS      NOp   2
 Largest Abelian subgroup         CS      NOp   2
 Largest concise Abelian subgroup C1      NOp   1
                         Standard orientation:                         
 ---------------------------------------------------------------------
 Center     Atomic      Atomic             Coordinates (Angstroms)
 Number     Number       Type             X           Y           Z
 ---------------------------------------------------------------------
      1          6           0        0.000000    0.442090    0.000000
      2          8           0        1.170647    0.120124    0.000000
      3          8           0       -1.046087   -0.466724    0.000000
      4          1           0       -0.388302    1.475148    0.000000
      5          1           0       -0.608181   -1.354886    0.000000
 ---------------------------------------------------------------------
 Rotational constants (GHZ):     73.4175159     11.7132467     10.1016066
 Standard basis: STO-3G (5D, 7F)
 There are    14 symmetry adapted basis functions of A'  symmetry.
 There are     3 symmetry adapted basis functions of A"  symmetry.
 Integral buffers will be    131072 words long.
 Raffenetti 1 integral format.
 Two-electron integral symmetry is turned on.
    17 basis functions,    51 primitive gaussians,    17 cartesian basis functions
    12 alpha electrons       12 beta electrons
       nuclear repulsion energy        68.9788183326 Hartrees.
 NAtoms=    5 NActive=    5 NUniq=    5 SFac= 1.00D+00 NAtFMM=   60 NAOKFM=F Big=F
 One-electron integrals computed using PRISM.
 NBasis=    17 RedAO= T  NBF=    14     3
 NBsUse=    17 1.00D-06 NBFU=    14     3
 Initial guess read from the read-write file.
 B after Tr=     0.000000    0.000000    0.000000
         Rot=    1.000000    0.000000    0.000000    0.000000 Ang=   0.00 deg.
 Initial guess orbital symmetries:
       Occupied  (A') (A') (A') (A') (A') (A') (A') (A') (A") (A')
                 (A") (A')
       Virtual   (A") (A') (A') (A') (A')
 Requested convergence on RMS density matrix=1.00D-08 within 128 cycles.
 Requested convergence on MAX density matrix=1.00D-06.
 Requested convergence on             energy=1.00D-06.
 No special actions if energy rises.
 Keep R1 ints in memory in canonical form, NReq=831559.
 SCF Done:  E(RHF) =  -186.217884112     A.U. after    9 cycles
             Convg  =    0.4502D-08             -V/T =  2.0089
 Calling FoFJK, ICntrl=      2127 FMM=F ISym2X=1 I1Cent= 0 IOpClX= 0 NMat=1 NMatS=1 NMatT=0.
 ***** Axes restored to original set *****
 -------------------------------------------------------------------
 Center     Atomic                   Forces (Hartrees/Bohr)
 Number     Number              X              Y              Z
 -------------------------------------------------------------------
      1        6          -0.000173595    0.000000000   -0.000181345
      2        8           0.000055970    0.000000000    0.000130801
      3        8          -0.000147219    0.000000000   -0.000011181
      4        1           0.000077754    0.000000000    0.000001100
      5        1           0.000187090    0.000000000    0.000060624
 -------------------------------------------------------------------
 Cartesian Forces:  Max     0.000187090 RMS     0.000099929

 GradGradGradGradGradGradGradGradGradGradGradGradGradGradGradGradGradGrad
 Berny optimization.
 Using GEDIIS/GDIIS optimizer.
 Internal  Forces:  Max     0.000182624 RMS     0.000086037
 Search for a local minimum.
 Step number   5 out of a maximum of   21
 All quantities printed in internal units (Hartrees-Bohrs-Radians)
 Mixed Optimization -- En-DIIS/RFO-DIIS
 Swaping is turned off.
 Update second derivatives using D2CorX and points    1    2    3    4    5
 DE= -6.08D-06 DEPred=-6.39D-06 R= 9.50D-01
 SS=  1.41D+00  RLast= 5.70D-03 DXNew= 8.4853D-01 1.7089D-02
 Trust test= 9.50D-01 RLast= 5.70D-03 DXMaxT set to 5.05D-01
 The second derivative matrix:
                          R1        R2        R3        R4        A1
           R1           1.08869
           R2           0.01442   0.46150
           R3           0.04487   0.01227   0.44011
           R4           0.01755   0.01238   0.00640   0.52428
           A1          -0.00144  -0.01364  -0.01151  -0.00311   0.25103
           A2           0.01496  -0.00012   0.00451   0.00737  -0.00106
           A3          -0.01017   0.02552  -0.00437  -0.00263  -0.00382
           A4           0.01166   0.09654  -0.00475   0.01248  -0.01824
           D1           0.00000   0.00000   0.00000   0.00000   0.00000
           D2           0.00000   0.00000   0.00000   0.00000   0.00000
           D3           0.00000   0.00000   0.00000   0.00000   0.00000
                          A2        A3        A4        D1        D2
           A2           0.16620
           A3          -0.00546   0.17211
           A4          -0.00218   0.03145   0.27351
           D1           0.00000   0.00000   0.00000   0.01030
           D2           0.00000   0.00000   0.00000   0.00000   0.01030
           D3           0.00000   0.00000   0.00000   0.00000   0.00000
                          D3
           D3           0.01030
 ITU=  1  1  1  1  0
     Eigenvalues ---    0.01030   0.01030   0.16828   0.21096   0.24632
     Eigenvalues ---    0.43671   0.49822   0.53406   1.09334
 En-DIIS/RFO-DIIS IScMMF=        0 using points:     5    4
 RFO step:  Lambda=-1.21139677D-07.
 DidBck=F Rises=F RFO-DIIS coefs:    0.94229    0.05771
 Iteration  1 RMS(Cart)=  0.00024948 RMS(Int)=  0.00000007
 Iteration  2 RMS(Cart)=  0.00000006 RMS(Int)=  0.00000000
 ClnCor:  largest displacement from symmetrization is 3.29D-14 for atom     1.
 Variable       Old X    -DE/DX   Delta X   Delta X   Delta X     New X
                                  (DIIS)     (GDIIS)  (Total)
    R1        2.29435   0.00013   0.00007   0.00005   0.00011   2.29446
    R2        2.61865   0.00000   0.00013  -0.00023  -0.00010   2.61854
    R3        2.08555  -0.00007   0.00014  -0.00030  -0.00017   2.08538
    R4        1.87130   0.00018   0.00002   0.00030   0.00033   1.87163
    A1        2.15790  -0.00005  -0.00003  -0.00015  -0.00018   2.15772
    A2        2.19873   0.00007   0.00009   0.00029   0.00038   2.19911
    A3        1.92655  -0.00002  -0.00006  -0.00014  -0.00020   1.92635
    A4        1.82802   0.00014   0.00023   0.00029   0.00053   1.82855
    D1        3.14159   0.00000   0.00000   0.00000   0.00000   3.14159
    D2        0.00000   0.00000   0.00000   0.00000   0.00000   0.00000
    D3        3.14159   0.00000   0.00000   0.00000   0.00000   3.14159
         Item               Value     Threshold  Converged?
 Maximum Force            0.000183     0.000450     YES
 RMS     Force            0.000086     0.000300     YES
 Maximum Displacement     0.000508     0.001800     YES
 RMS     Displacement     0.000249     0.001200     YES
 Predicted change in Energy=-9.811320D-08
 Optimization completed.
    -- Stationary point found.
                           ----------------------------
                           !   Optimized Parameters   !
                           ! (Angstroms and Degrees)  !
 --------------------------                            --------------------------
 ! Name  Definition              Value          Derivative Info.                !
 --------------------------------------------------------------------------------
 ! R1    R(1,2)                  1.2141         -DE/DX =    0.0001              !
 ! R2    R(1,3)                  1.3857         -DE/DX =    0.0                 !
 ! R3    R(1,4)                  1.1036         -DE/DX =   -0.0001              !
 ! R4    R(3,5)                  0.9902         -DE/DX =    0.0002              !
 ! A1    A(2,1,3)              123.6388         -DE/DX =    0.0                 !
 ! A2    A(2,1,4)              125.978          -DE/DX =    0.0001              !
 ! A3    A(3,1,4)              110.3833         -DE/DX =    0.0                 !
 ! A4    A(1,3,5)              104.7378         -DE/DX =    0.0001              !
 ! D1    D(2,1,3,4)            180.0            -DE/DX =    0.0                 !
 ! D2    D(2,1,3,5)              0.0            -DE/DX =    0.0                 !
 ! D3    D(4,1,3,5)            180.0            -DE/DX =    0.0                 !
 --------------------------------------------------------------------------------
 GradGradGradGradGradGradGradGradGradGradGradGradGradGradGradGradGradGrad

                          Input orientation:                          
 ---------------------------------------------------------------------
 Center     Atomic      Atomic             Coordinates (Angstroms)
 Number     Number       Type             X           Y           Z
 ---------------------------------------------------------------------
      1          6           0        0.070216    0.000000    0.024498
      2          8           0        0.110180    0.000000    1.237955
      3          8           0        1.198006    0.000000   -0.780691
      4          1           0       -0.843742    0.000000   -0.594105
      5          1           0        1.959493    0.000000   -0.147658
 ---------------------------------------------------------------------
                    Distance matrix (angstroms):
                    1          2          3          4          5
     1  C    0.000000
     2  O    1.214115   0.000000
     3  O    1.385727   2.293098   0.000000
     4  H    1.103625   2.065529   2.050256   0.000000
     5  H    1.897105   2.310819   0.990249   2.838564   0.000000
 Stoichiometry    CH2O2
 Framework group  CS[SG(CH2O2)]
 Deg. of freedom     7
 Full point group                 CS      NOp   2
 Largest Abelian subgroup         CS      NOp   2
 Largest concise Abelian subgroup C1      NOp   1
                         Standard orientation:                         
 ---------------------------------------------------------------------
 Center     Atomic      Atomic             Coordinates (Angstroms)
 Number     Number       Type             X           Y           Z
 ---------------------------------------------------------------------
      1          6           0        0.000000    0.442090    0.000000
      2          8           0        1.170647    0.120124    0.000000
      3          8           0       -1.046087   -0.466724    0.000000
      4          1           0       -0.388302    1.475148    0.000000
      5          1           0       -0.608181   -1.354886    0.000000
 ---------------------------------------------------------------------
 Rotational constants (GHZ):     73.4175159     11.7132467     10.1016066

 **********************************************************************

            Population analysis using the SCF density.

 **********************************************************************

 Orbital symmetries:
       Occupied  (A') (A') (A') (A') (A') (A') (A') (A') (A") (A')
                 (A") (A')
       Virtual   (A") (A') (A') (A') (A')
 The electronic state is 1-A'.
 Alpha  occ. eigenvalues --  -20.31459 -20.28179 -11.18010  -1.38259  -1.28425
 Alpha  occ. eigenvalues --   -0.80086  -0.62496  -0.59428  -0.53374  -0.47590
 Alpha  occ. eigenvalues --   -0.36488  -0.36118
 Alpha virt. eigenvalues --    0.29618   0.55452   0.64929   0.69664   0.94863
          Condensed to atoms (all electrons):
              1          2          3          4          5
     1  C    4.706288   0.438596   0.276648   0.366587  -0.043182
     2  O    0.438596   7.852293  -0.018367  -0.020865  -0.000781
     3  O    0.276648  -0.018367   7.799775  -0.027430   0.254860
     4  H    0.366587  -0.020865  -0.027430   0.603895   0.003828
     5  H   -0.043182  -0.000781   0.254860   0.003828   0.577961
 Mulliken atomic charges:
              1
     1  C    0.255064
     2  O   -0.250876
     3  O   -0.285485
     4  H    0.073984
     5  H    0.207314
 Sum of Mulliken atomic charges =   0.00000
 Mulliken charges with hydrogens summed into heavy atoms:
              1
     1  C    0.329048
     2  O   -0.250876
     3  O   -0.078172
 Sum of Mulliken charges with hydrogens summed into heavy atoms =   0.00000
 Electronic spatial extent (au):  <R**2>=            132.3537
 Charge=              0.0000 electrons
 Dipole moment (field-independent basis, Debye):
    X=             -0.5971    Y=             -0.1843    Z=              0.0000  Tot=              0.6249
 Quadrupole moment (field-independent basis, Debye-Ang):
   XX=            -19.8576   YY=            -12.3160   ZZ=            -14.8110
   XY=             -0.4069   XZ=              0.0000   YZ=              0.0000
 Traceless Quadrupole moment (field-independent basis, Debye-Ang):
   XX=             -4.1961   YY=              3.3456   ZZ=              0.8505
   XY=             -0.4069   XZ=              0.0000   YZ=              0.0000
 Octapole moment (field-independent basis, Debye-Ang**2):
  XXX=              0.0518  YYY=             -4.4161  ZZZ=              0.0000  XYY=             -1.4507
  XXY=             -0.3627  XXZ=              0.0000  XZZ=              0.6755  YZZ=             -0.7383
  YYZ=              0.0000  XYZ=              0.0000
 Hexadecapole moment (field-independent basis, Debye-Ang**3):
 XXXX=            -86.1413 YYYY=            -30.9553 ZZZZ=             -8.8119 XXXY=            -10.4226
 XXXZ=              0.0000 YYYX=             -7.7442 YYYZ=              0.0000 ZZZX=              0.0000
 ZZZY=              0.0000 XXYY=            -18.8590 XXZZ=            -14.2976 YYZZ=             -7.9333
 XXYZ=              0.0000 YYXZ=              0.0000 ZZXY=             -2.9782
 N-N= 6.897881833263D+01 E-N=-5.785716661409D+02  KE= 1.845765195270D+02
 Symmetry A'   KE= 1.759973591548D+02
 Symmetry A"   KE= 8.579160372129D+00
 1\1\GINC-NODE47\FOpt\RHF\STO-3G\C1H2O2\CN410107\22-Sep-2018\0\\#HF STO
 -3G opt freq\\Formic Acid Monomer\\0,1\C,0.0702159276,0.,0.0244979006\
 O,0.1101795972,0.,1.2379554011\O,1.1980063436,0.,-0.7806909531\H,-0.84
 37419994,0.,-0.594104825\H,1.9594932941,0.,-0.1476575236\\Version=EM64
 L-G09RevC.01\State=1-A'\HF=-186.2178841\RMSD=4.502e-09\RMSF=9.993e-05\
 Dipole=0.1253274,0.,-0.2115193\Quadrupole=2.0448664,0.6323379,-2.67720
 44,0.,1.5416558,0.\PG=CS [SG(C1H2O2)]\\@


 ONLY THE DAY DAWNS TO WHICH YOU ARE AWAKE.

                                 -- THOREAU
 Job cpu time:  0 days  0 hours  0 minutes  8.3 seconds.
 File lengths (MBytes):  RWF=      5 Int=      0 D2E=      0 Chk=      1 Scr=      1
 Normal termination of Gaussian 09 at Sat Sep 22 15:35:25 2018.
 Link1:  Proceeding to internal job step number  2.
 ---------------------------------------------------------------
 #N Geom=AllCheck Guess=TCheck SCRF=Check GenChk RHF/STO-3G Freq
 ---------------------------------------------------------------
 1/10=4,29=7,30=1,38=1,40=1/1,3;
 2/12=2,40=1/2;
 3/6=3,11=1,14=-4,16=1,25=1,30=1,70=2,71=2,116=1/1,2,3;
 4/5=101/1;
 5/5=2,98=1/2;
 8/6=4,10=90,11=11/1;
 10/13=10,15=4/2;
 11/6=3,8=1,9=11,15=111,16=1/1,2,10;
 10/6=1/2;
 6/7=2,8=2,9=2,10=2,18=1,28=1/1;
 7/8=1,10=1,25=1/1,2,3,16;
 1/10=4,30=1/3;
 99//99;
 Structure from the checkpoint file:  /scratch/cn410107.137191/Gau-43771.chk
 -------------------
 Formic Acid Monomer
 -------------------
 Charge =  0 Multiplicity = 1
 Redundant internal coordinates found in file.
 C,0,0.0702159276,0.,0.0244979006
 O,0,0.1101795972,0.,1.2379554011
 O,0,1.1980063436,0.,-0.7806909531
 H,0,-0.8437419994,0.,-0.594104825
 H,0,1.9594932941,0.,-0.1476575236
 Recover connectivity data from disk.

 GradGradGradGradGradGradGradGradGradGradGradGradGradGradGradGradGradGrad
 Berny optimization.
 Initialization pass.
                           ----------------------------
                           !    Initial Parameters    !
                           ! (Angstroms and Degrees)  !
 --------------------------                            --------------------------
 ! Name  Definition              Value          Derivative Info.                !
 --------------------------------------------------------------------------------
 ! R1    R(1,2)                  1.2141         calculate D2E/DX2 analytically  !
 ! R2    R(1,3)                  1.3857         calculate D2E/DX2 analytically  !
 ! R3    R(1,4)                  1.1036         calculate D2E/DX2 analytically  !
 ! R4    R(3,5)                  0.9902         calculate D2E/DX2 analytically  !
 ! A1    A(2,1,3)              123.6388         calculate D2E/DX2 analytically  !
 ! A2    A(2,1,4)              125.978          calculate D2E/DX2 analytically  !
 ! A3    A(3,1,4)              110.3833         calculate D2E/DX2 analytically  !
 ! A4    A(1,3,5)              104.7378         calculate D2E/DX2 analytically  !
 ! D1    D(2,1,3,4)            180.0            calculate D2E/DX2 analytically  !
 ! D2    D(2,1,3,5)              0.0            calculate D2E/DX2 analytically  !
 ! D3    D(4,1,3,5)            180.0            calculate D2E/DX2 analytically  !
 --------------------------------------------------------------------------------
 Trust Radius=3.00D-01 FncErr=1.00D-07 GrdErr=1.00D-07
 Number of steps in this run=      2 maximum allowed number of steps=      2.
 GradGradGradGradGradGradGradGradGradGradGradGradGradGradGradGradGradGrad

                          Input orientation:                          
 ---------------------------------------------------------------------
 Center     Atomic      Atomic             Coordinates (Angstroms)
 Number     Number       Type             X           Y           Z
 ---------------------------------------------------------------------
      1          6           0        0.070216    0.000000    0.024498
      2          8           0        0.110180    0.000000    1.237955
      3          8           0        1.198006    0.000000   -0.780691
      4          1           0       -0.843742    0.000000   -0.594105
      5          1           0        1.959493    0.000000   -0.147658
 ---------------------------------------------------------------------
                    Distance matrix (angstroms):
                    1          2          3          4          5
     1  C    0.000000
     2  O    1.214115   0.000000
     3  O    1.385727   2.293098   0.000000
     4  H    1.103625   2.065529   2.050256   0.000000
     5  H    1.897105   2.310819   0.990249   2.838564   0.000000
 Stoichiometry    CH2O2
 Framework group  CS[SG(CH2O2)]
 Deg. of freedom     7
 Full point group                 CS      NOp   2
 Largest Abelian subgroup         CS      NOp   2
 Largest concise Abelian subgroup C1      NOp   1
                         Standard orientation:                         
 ---------------------------------------------------------------------
 Center     Atomic      Atomic             Coordinates (Angstroms)
 Number     Number       Type             X           Y           Z
 ---------------------------------------------------------------------
      1          6           0        0.000000    0.442090    0.000000
      2          8           0        1.170647    0.120124    0.000000
      3          8           0       -1.046087   -0.466724    0.000000
      4          1           0       -0.388302    1.475148    0.000000
      5          1           0       -0.608181   -1.354886    0.000000
 ---------------------------------------------------------------------
 Rotational constants (GHZ):     73.4175159     11.7132467     10.1016066
 Standard basis: STO-3G (5D, 7F)
 There are    14 symmetry adapted basis functions of A'  symmetry.
 There are     3 symmetry adapted basis functions of A"  symmetry.
 Integral buffers will be    131072 words long.
 Raffenetti 1 integral format.
 Two-electron integral symmetry is turned on.
    17 basis functions,    51 primitive gaussians,    17 cartesian basis functions
    12 alpha electrons       12 beta electrons
       nuclear repulsion energy        68.9788183326 Hartrees.
 NAtoms=    5 NActive=    5 NUniq=    5 SFac= 1.00D+00 NAtFMM=   60 NAOKFM=F Big=F
 One-electron integrals computed using PRISM.
 NBasis=    17 RedAO= T  NBF=    14     3
 NBsUse=    17 1.00D-06 NBFU=    14     3
 Initial guess read from the checkpoint file:  /scratch/cn410107.137191/Gau-43771.chk
 B after Tr=     0.000000    0.000000    0.000000
         Rot=    1.000000    0.000000    0.000000    0.000000 Ang=   0.00 deg.
 Initial guess orbital symmetries:
       Occupied  (A') (A') (A') (A') (A') (A') (A') (A') (A") (A')
                 (A") (A')
       Virtual   (A") (A') (A') (A') (A')
 Requested convergence on RMS density matrix=1.00D-08 within 128 cycles.
 Requested convergence on MAX density matrix=1.00D-06.
 Requested convergence on             energy=1.00D-06.
 No special actions if energy rises.
 Keep R1 ints in memory in canonical form, NReq=831559.
 SCF Done:  E(RHF) =  -186.217884112     A.U. after    1 cycles
             Convg  =    0.4420D-09             -V/T =  2.0089
 Range of M.O.s used for correlation:     1    17
 NBasis=    17 NAE=    12 NBE=    12 NFC=     0 NFV=     0
 NROrb=     17 NOA=    12 NOB=    12 NVA=     5 NVB=     5
          Differentiating once with respect to electric field.
                with respect to dipole field.
          Electric field/nuclear overlap derivatives assumed to be zero.
          Keep R1 ints in memory in canonical form, NReq=812206.
          There are     3 degrees of freedom in the 1st order CPHF.  IDoFFX=0.
      3 vectors produced by pass  0 Test12= 2.00D-15 3.33D-08 XBig12= 4.99D+00 1.83D+00.
 AX will form     3 AO Fock derivatives at one time.
      3 vectors produced by pass  1 Test12= 2.00D-15 3.33D-08 XBig12= 2.52D-01 2.53D-01.
      3 vectors produced by pass  2 Test12= 2.00D-15 3.33D-08 XBig12= 1.86D-02 8.09D-02.
      3 vectors produced by pass  3 Test12= 2.00D-15 3.33D-08 XBig12= 1.51D-04 4.86D-03.
      3 vectors produced by pass  4 Test12= 2.00D-15 3.33D-08 XBig12= 1.62D-06 4.77D-04.
      3 vectors produced by pass  5 Test12= 2.00D-15 3.33D-08 XBig12= 1.04D-08 3.26D-05.
      3 vectors produced by pass  6 Test12= 2.00D-15 3.33D-08 XBig12= 1.49D-10 5.61D-06.
      3 vectors produced by pass  7 Test12= 2.00D-15 3.33D-08 XBig12= 1.90D-12 6.13D-07.
      2 vectors produced by pass  8 Test12= 2.00D-15 3.33D-08 XBig12= 8.72D-15 3.75D-08.
 Inverted reduced A of dimension    26 with in-core refinement.
 End of Minotr Frequency-dependent properties file   721 does not exist.
 End of Minotr Frequency-dependent properties file   722 does not exist.
 Symmetrizing basis deriv contribution to polar:
 IMax=3 JMax=2 DiffMx= 0.00D+00
 G2DrvN: will do     6 centers at a time, making    1 passes doing MaxLOS=1.
 Calling FoFCou, ICntrl=  3107 FMM=F I1Cent=   0 AccDes= 0.00D+00.
 FoFDir/FoFCou used for L=0 through L=1.
 End of G2Drv Frequency-dependent properties file   721 does not exist.
 End of G2Drv Frequency-dependent properties file   722 does not exist.
          IDoAtm=11111
          Differentiating once with respect to electric field.
                with respect to dipole field.
          Differentiating once with respect to nuclear coordinates.
          Keep R1 ints in memory in canonical form, NReq=812312.
          There are    18 degrees of freedom in the 1st order CPHF.  IDoFFX=5.
 Will reuse    3 saved solutions.
     12 vectors produced by pass  0 Test12= 3.33D-16 5.56D-09 XBig12= 6.34D-02 1.40D-01.
 AX will form    12 AO Fock derivatives at one time.
     12 vectors produced by pass  1 Test12= 3.33D-16 5.56D-09 XBig12= 1.26D-03 1.61D-02.
     12 vectors produced by pass  2 Test12= 3.33D-16 5.56D-09 XBig12= 3.54D-06 7.67D-04.
     12 vectors produced by pass  3 Test12= 3.33D-16 5.56D-09 XBig12= 7.94D-09 5.21D-05.
     10 vectors produced by pass  4 Test12= 3.33D-16 5.56D-09 XBig12= 2.48D-11 3.16D-06.
      2 vectors produced by pass  5 Test12= 3.33D-16 5.56D-09 XBig12= 1.29D-15 2.09D-08.
 Inverted reduced A of dimension    60 with in-core refinement.
 Isotropic polarizability for W=    0.000000        8.60 Bohr**3.
 End of Minotr Frequency-dependent properties file   721 does not exist.
 End of Minotr Frequency-dependent properties file   722 does not exist.

 **********************************************************************

            Population analysis using the SCF density.

 **********************************************************************

 Orbital symmetries:
       Occupied  (A') (A') (A') (A') (A') (A') (A') (A') (A") (A')
                 (A") (A')
       Virtual   (A") (A') (A') (A') (A')
 The electronic state is 1-A'.
 Alpha  occ. eigenvalues --  -20.31459 -20.28179 -11.18010  -1.38259  -1.28425
 Alpha  occ. eigenvalues --   -0.80086  -0.62496  -0.59428  -0.53374  -0.47590
 Alpha  occ. eigenvalues --   -0.36488  -0.36118
 Alpha virt. eigenvalues --    0.29618   0.55452   0.64929   0.69664   0.94863
          Condensed to atoms (all electrons):
              1          2          3          4          5
     1  C    4.706288   0.438596   0.276648   0.366587  -0.043182
     2  O    0.438596   7.852293  -0.018367  -0.020865  -0.000781
     3  O    0.276648  -0.018367   7.799775  -0.027430   0.254860
     4  H    0.366587  -0.020865  -0.027430   0.603895   0.003828
     5  H   -0.043182  -0.000781   0.254860   0.003828   0.577961
 Mulliken atomic charges:
              1
     1  C    0.255064
     2  O   -0.250876
     3  O   -0.285485
     4  H    0.073984
     5  H    0.207314
 Sum of Mulliken atomic charges =   0.00000
 Mulliken charges with hydrogens summed into heavy atoms:
              1
     1  C    0.329048
     2  O   -0.250876
     3  O   -0.078172
 Sum of Mulliken charges with hydrogens summed into heavy atoms =   0.00000
 APT atomic charges:
              1
     1  C    0.731497
     2  O   -0.440201
     3  O   -0.452100
     4  H    0.024749
     5  H    0.136055
 Sum of APT charges=   0.00000
 APT Atomic charges with hydrogens summed into heavy atoms:
              1
     1  C    0.756246
     2  O   -0.440201
     3  O   -0.316045
     4  H    0.000000
     5  H    0.000000
 Sum of APT charges=   0.00000
 Electronic spatial extent (au):  <R**2>=            132.3537
 Charge=              0.0000 electrons
 Dipole moment (field-independent basis, Debye):
    X=             -0.5971    Y=             -0.1843    Z=              0.0000  Tot=              0.6249
 Quadrupole moment (field-independent basis, Debye-Ang):
   XX=            -19.8576   YY=            -12.3160   ZZ=            -14.8110
   XY=             -0.4069   XZ=              0.0000   YZ=              0.0000
 Traceless Quadrupole moment (field-independent basis, Debye-Ang):
   XX=             -4.1961   YY=              3.3456   ZZ=              0.8505
   XY=             -0.4069   XZ=              0.0000   YZ=              0.0000
 Octapole moment (field-independent basis, Debye-Ang**2):
  XXX=              0.0518  YYY=             -4.4161  ZZZ=              0.0000  XYY=             -1.4507
  XXY=             -0.3627  XXZ=              0.0000  XZZ=              0.6755  YZZ=             -0.7383
  YYZ=              0.0000  XYZ=              0.0000
 Hexadecapole moment (field-independent basis, Debye-Ang**3):
 XXXX=            -86.1413 YYYY=            -30.9553 ZZZZ=             -8.8119 XXXY=            -10.4226
 XXXZ=              0.0000 YYYX=             -7.7442 YYYZ=              0.0000 ZZZX=              0.0000
 ZZZY=              0.0000 XXYY=            -18.8590 XXZZ=            -14.2976 YYZZ=             -7.9333
 XXYZ=              0.0000 YYXZ=              0.0000 ZZXY=             -2.9782
 N-N= 6.897881833263D+01 E-N=-5.785716661392D+02  KE= 1.845765195287D+02
 Symmetry A'   KE= 1.759973591549D+02
 Symmetry A"   KE= 8.579160373784D+00
  Exact polarizability:  12.163  -0.205  11.184   0.000   0.000   2.466
 Approx polarizability:  16.327  -1.309   8.706   0.000   0.000   1.748
 Calling FoFJK, ICntrl=    100127 FMM=F ISym2X=1 I1Cent= 0 IOpClX= 0 NMat=1 NMatS=1 NMatT=0.
 Full mass-weighted force constant matrix:
 Low frequencies ---  -21.4467   -8.7750   -3.2657   -0.0012   -0.0007    0.0007
 Low frequencies ---  599.6086  633.7774 1096.2215
 Harmonic frequencies (cm**-1), IR intensities (KM/Mole), Raman scattering
 activities (A**4/AMU), depolarization ratios for plane and unpolarized
 incident light, reduced masses (AMU), force constants (mDyne/A),
 and normal coordinates:
                     1                      2                      3
                    A"                     A'                     A"
 Frequencies --   599.6069               633.7774              1096.2214
 Red. masses --     1.2846                 4.2130                 1.5004
 Frc consts  --     0.2721                 0.9970                 1.0623
 IR Inten    --   109.9781                42.9446                 0.2995
 Raman Activ --     4.1856                 3.1630                 0.7424
 Depolar (P) --     0.7500                 0.6241                 0.7500
 Depolar (U) --     0.8571                 0.7686                 0.8571
  Atom  AN      X      Y      Z        X      Y      Z        X      Y      Z
     1   6     0.00   0.00  -0.10     0.08  -0.27   0.00     0.00   0.00   0.20
     2   8     0.00   0.00   0.05     0.23   0.21   0.00     0.00   0.00  -0.05
     3   8     0.00   0.00   0.09    -0.24   0.03   0.00     0.00   0.00  -0.03
     4   1     0.00   0.00  -0.14    -0.01  -0.29   0.00     0.00   0.00  -0.96
     5   1     0.00   0.00  -0.98    -0.79  -0.24   0.00     0.00   0.00  -0.19
                     4                      5                      6
                    A'                     A'                     A'
 Frequencies --  1249.3607              1565.7761              1639.3304
 Red. masses --     3.3817                 1.4603                 1.2290
 Frc consts  --     3.1100                 2.1093                 1.9460
 IR Inten    --    97.4062                26.1290                 4.1549
 Raman Activ --     1.7143                 3.2308                13.6196
 Depolar (P) --     0.1594                 0.2761                 0.7439
 Depolar (U) --     0.2750                 0.4328                 0.8531
  Atom  AN      X      Y      Z        X      Y      Z        X      Y      Z
     1   6    -0.10  -0.24   0.00     0.05   0.16   0.00     0.03   0.05   0.00
     2   8    -0.10   0.01   0.00     0.06  -0.06   0.00    -0.07   0.02   0.00
     3   8     0.24   0.20   0.00    -0.02  -0.04   0.00     0.06  -0.04   0.00
     4   1    -0.65  -0.46   0.00    -0.86  -0.15   0.00     0.47   0.22   0.00
     5   1    -0.44  -0.09   0.00    -0.39  -0.22   0.00    -0.74  -0.42   0.00
                     7                      8                      9
                    A'                     A'                     A'
 Frequencies --  2117.4046              3588.7098              4248.4107
 Red. masses --     7.1985                 1.0976                 1.0666
 Frc consts  --    19.0151                 8.3287                11.3421
 IR Inten    --   116.9972                 6.0628                 8.9187
 Raman Activ --     6.5395                39.3573                47.1033
 Depolar (P) --     0.1415                 0.3852                 0.2984
 Depolar (U) --     0.2479                 0.5562                 0.4597
  Atom  AN      X      Y      Z        X      Y      Z        X      Y      Z
     1   6     0.60  -0.07   0.00     0.04  -0.08   0.00     0.00   0.00   0.00
     2   8    -0.36   0.10   0.00    -0.01   0.00   0.00     0.00   0.00   0.00
     3   8    -0.09  -0.02   0.00     0.00   0.00   0.00    -0.02   0.06   0.00
     4   1    -0.31  -0.51   0.00    -0.35   0.93   0.00     0.01  -0.01   0.00
     5   1     0.34   0.14   0.00     0.02   0.00   0.00     0.42  -0.90   0.00

 -------------------
 - Thermochemistry -
 -------------------
 Temperature   298.150 Kelvin.  Pressure   1.00000 Atm.
 Atom     1 has atomic number  6 and mass  12.00000
 Atom     2 has atomic number  8 and mass  15.99491
 Atom     3 has atomic number  8 and mass  15.99491
 Atom     4 has atomic number  1 and mass   1.00783
 Atom     5 has atomic number  1 and mass   1.00783
 Molecular mass:    46.00548 amu.
 Principal axes and moments of inertia in atomic units:
                           1         2         3
     Eigenvalues --    24.58189 154.07694 178.65883
           X            0.95458  -0.29797   0.00000
           Y            0.29797   0.95458   0.00000
           Z            0.00000   0.00000   1.00000
 This molecule is an asymmetric top.
 Rotational symmetry number  1.
 Rotational temperatures (Kelvin)      3.52348     0.56215     0.48480
 Rotational constants (GHZ):          73.41752    11.71325    10.10161
 Zero-point vibrational energy     100119.0 (Joules/Mol)
                                   23.92903 (Kcal/Mol)
 Warning -- explicit consideration of   1 degrees of freedom as
           vibrations may cause significant error
 Vibrational temperatures:    862.70   911.86  1577.22  1797.55  2252.80
          (Kelvin)           2358.63  3046.47  5163.35  6112.51
 
 Zero-point correction=                           0.038133 (Hartree/Particle)
 Thermal correction to Energy=                    0.041314
 Thermal correction to Enthalpy=                  0.042258
 Thermal correction to Gibbs Free Energy=         0.013986
 Sum of electronic and zero-point Energies=           -186.179751
 Sum of electronic and thermal Energies=              -186.176570
 Sum of electronic and thermal Enthalpies=            -186.175626
 Sum of electronic and thermal Free Energies=         -186.203898
 
                     E (Thermal)             CV                S
                      KCal/Mol        Cal/Mol-Kelvin    Cal/Mol-Kelvin
 Total                   25.925              8.526             59.504
 Electronic               0.000              0.000              0.000
 Translational            0.889              2.981             37.404
 Rotational               0.889              2.981             21.142
 Vibrational             24.148              2.564              0.959
 Vibration     1          0.958              1.033              0.450
                       Q            Log10(Q)             Ln(Q)
 Total Bot       0.368897D-06         -6.433095        -14.812749
 Total V=0       0.127933D+12         11.106983         25.574773
 Vib (Bot)       0.322998D-17        -17.490800        -40.274055
 Vib (Bot)    1  0.249130D+00         -0.603574         -1.389780
 Vib (V=0)       0.112015D+01          0.049278          0.113467
 Vib (V=0)    1  0.105863D+01          0.024744          0.056974
 Electronic      0.100000D+01          0.000000          0.000000
 Translational   0.122651D+08          7.088670         16.322265
 Rotational      0.931183D+04          3.969035          9.139041
 ***** Axes restored to original set *****
 -------------------------------------------------------------------
 Center     Atomic                   Forces (Hartrees/Bohr)
 Number     Number              X              Y              Z
 -------------------------------------------------------------------
      1        6          -0.000173595    0.000000000   -0.000181345
      2        8           0.000055970    0.000000000    0.000130801
      3        8          -0.000147218    0.000000000   -0.000011181
      4        1           0.000077754    0.000000000    0.000001100
      5        1           0.000187090    0.000000000    0.000060625
 -------------------------------------------------------------------
 Cartesian Forces:  Max     0.000187090 RMS     0.000099929

 GradGradGradGradGradGradGradGradGradGradGradGradGradGradGradGradGradGrad
 Berny optimization.
 Internal  Forces:  Max     0.000182625 RMS     0.000086037
 Search for a local minimum.
 Step number   1 out of a maximum of    2
 All quantities printed in internal units (Hartrees-Bohrs-Radians)
 Second derivative matrix not updated -- analytic derivatives used.
 The second derivative matrix:
                          R1        R2        R3        R4        A1
           R1           1.12032
           R2           0.06023   0.53225
           R3           0.01784   0.00555   0.45327
           R4          -0.00315  -0.01841  -0.00132   0.64814
           A1           0.03317   0.02389  -0.01650  -0.01228   0.18104
           A2           0.01168  -0.02822   0.00701   0.00349  -0.08850
           A3          -0.04485   0.00432   0.00949   0.00879  -0.09254
           A4          -0.00747   0.06268   0.00270   0.03064  -0.04344
           D1           0.00000   0.00000   0.00000   0.00000   0.00000
           D2           0.00000   0.00000   0.00000   0.00000   0.00000
           D3           0.00000   0.00000   0.00000   0.00000   0.00000
                          A2        A3        A4        D1        D2
           A2           0.13586
           A3          -0.04735   0.13989
           A4           0.00312   0.04031   0.28960
           D1           0.00000   0.00000   0.00000   0.04169
           D2           0.00000   0.00000   0.00000   0.01886   0.01781
           D3           0.00000   0.00000   0.00000  -0.02283  -0.00105
                          D3
           D3           0.02179
 ITU=  0
     Eigenvalues ---    0.01849   0.06281   0.17594   0.21580   0.32475
     Eigenvalues ---    0.45554   0.54449   0.65321   1.13065
 Angle between quadratic step and forces=  32.02 degrees.
 Linear search not attempted -- first point.
 Iteration  1 RMS(Cart)=  0.00023171 RMS(Int)=  0.00000006
 Iteration  2 RMS(Cart)=  0.00000005 RMS(Int)=  0.00000000
 ClnCor:  largest displacement from symmetrization is 7.00D-15 for atom     1.
 Variable       Old X    -DE/DX   Delta X   Delta X   Delta X     New X
                                 (Linear)    (Quad)   (Total)
    R1        2.29435   0.00013   0.00000   0.00012   0.00012   2.29446
    R2        2.61865   0.00000   0.00000  -0.00003  -0.00003   2.61862
    R3        2.08555  -0.00007   0.00000  -0.00015  -0.00015   2.08539
    R4        1.87130   0.00018   0.00000   0.00026   0.00026   1.87156
    A1        2.15790  -0.00005   0.00000  -0.00012  -0.00012   2.15778
    A2        2.19873   0.00007   0.00000   0.00033   0.00033   2.19906
    A3        1.92655  -0.00002   0.00000  -0.00021  -0.00021   1.92634
    A4        1.82802   0.00014   0.00000   0.00046   0.00046   1.82848
    D1        3.14159   0.00000   0.00000   0.00000   0.00000   3.14159
    D2        0.00000   0.00000   0.00000   0.00000   0.00000   0.00000
    D3        3.14159   0.00000   0.00000   0.00000   0.00000   3.14159
         Item               Value     Threshold  Converged?
 Maximum Force            0.000183     0.000450     YES
 RMS     Force            0.000086     0.000300     YES
 Maximum Displacement     0.000463     0.001800     YES
 RMS     Displacement     0.000232     0.001200     YES
 Predicted change in Energy=-8.445409D-08
 Optimization completed.
    -- Stationary point found.
                           ----------------------------
                           !   Optimized Parameters   !
                           ! (Angstroms and Degrees)  !
 --------------------------                            --------------------------
 ! Name  Definition              Value          Derivative Info.                !
 --------------------------------------------------------------------------------
 ! R1    R(1,2)                  1.2141         -DE/DX =    0.0001              !
 ! R2    R(1,3)                  1.3857         -DE/DX =    0.0                 !
 ! R3    R(1,4)                  1.1036         -DE/DX =   -0.0001              !
 ! R4    R(3,5)                  0.9902         -DE/DX =    0.0002              !
 ! A1    A(2,1,3)              123.6388         -DE/DX =    0.0                 !
 ! A2    A(2,1,4)              125.978          -DE/DX =    0.0001              !
 ! A3    A(3,1,4)              110.3833         -DE/DX =    0.0                 !
 ! A4    A(1,3,5)              104.7378         -DE/DX =    0.0001              !
 ! D1    D(2,1,3,4)            180.0            -DE/DX =    0.0                 !
 ! D2    D(2,1,3,5)              0.0            -DE/DX =    0.0                 !
 ! D3    D(4,1,3,5)            180.0            -DE/DX =    0.0                 !
 --------------------------------------------------------------------------------
 GradGradGradGradGradGradGradGradGradGradGradGradGradGradGradGradGradGrad

 1\1\GINC-NODE47\Freq\RHF\STO-3G\C1H2O2\CN410107\22-Sep-2018\0\\#N Geom
 =AllCheck Guess=TCheck SCRF=Check GenChk RHF/STO-3G Freq\\Formic Acid 
 Monomer\\0,1\C,0.0702159276,0.,0.0244979006\O,0.1101795972,0.,1.237955
 4011\O,1.1980063436,0.,-0.7806909531\H,-0.8437419994,0.,-0.594104825\H
 ,1.9594932941,0.,-0.1476575236\\Version=EM64L-G09RevC.01\State=1-A'\HF
 =-186.2178841\RMSD=4.420e-10\RMSF=9.993e-05\ZeroPoint=0.0381333\Therma
 l=0.0413142\Dipole=0.1253274,0.,-0.2115193\DipoleDeriv=1.1067935,0.,-0
 .3141294,0.,0.3109597,0.,-0.3599105,0.,0.7767384,-0.5181111,0.,-0.0628
 263,0.,-0.278115,0.,0.2227286,0.,-0.5243767,-0.6258299,0.,0.4720432,0.
 ,-0.3862766,0.,0.2514716,0.,-0.344194,-0.0367317,0.,0.0413213,0.,0.055
 1709,0.,0.0283397,0.,0.0558072,0.0738792,0.,-0.1364088,0.,0.2982611,0.
 ,-0.1426295,0.,0.0360252\Polar=11.1442415,0.,2.4656487,-0.0389166,0.,1
 2.202692\PolarDeriv=0.7210452,0.,-0.1012576,0.1184864,0.,0.1373461,0.,
 -0.1381241,0.,0.,-1.9939101,0.,1.2734601,0.,-0.7080478,2.1491774,0.,-5
 .0036678,-0.7818435,0.,-0.0357761,2.9631595,0.,0.2312444,0.,-0.4610469
 ,0.,0.,3.2059987,0.,0.2633103,0.,1.0889791,-1.6692251,0.,9.9628778,-1.
 5442099,0.,0.2580932,-1.3861588,0.,-0.2499401,0.,-0.171872,0.,0.,-1.39
 24389,0.,-2.811536,0.,-0.2772911,-0.2682867,0.,-3.7573457,-5.0397363,0
 .,-0.132846,-2.2293401,0.,-0.1718538,0.,-1.1943558,0.,0.,-0.3856009,0.
 ,-1.0921004,0.,-0.1048556,-2.2145928,0.,-2.3714802,6.6447444,0.,0.0117
 867,0.5338529,0.,0.0532033,0.,1.9653988,0.,0.,0.5659512,0.,2.3668661,0
 .,0.0012154,2.0029271,0.,1.169616\HyperPolar=-6.1626292,0.,1.6290407,0
 .,10.9933394,0.,-2.6395047,-8.1597197,0.,-1.2965045\PG=CS [SG(C1H2O2)]
 \NImag=0\\0.84892509,0.,0.19030877,0.07254269,0.,1.42212879,-0.1242091
 6,0.,-0.04672366,0.09426501,0.,-0.06908413,0.,0.,0.02659028,-0.0539474
 3,0.,-1.02502652,0.02444896,0.,1.11982127,-0.35260583,0.,0.17501042,0.
 00538993,0.,0.03486486,0.76266281,0.,-0.05105470,0.,0.,0.02356575,0.,0
 .,0.03018820,0.08222056,0.,-0.22910809,0.06398703,0.,-0.06476421,0.104
 55142,0.,0.58592959,-0.32146813,0.,-0.15170915,0.01250807,0.,0.0000064
 8,-0.02531623,0.,-0.02352637,0.33871134,0.,-0.06884981,0.,0.,0.0226273
 9,0.,0.,0.01063421,0.,0.,0.02860073,-0.15716574,0.,-0.18604203,-0.0378
 0264,0.,-0.03121772,0.01783490,0.,0.02112834,0.17041916,0.,0.19976153,
 -0.05064196,0.,-0.04912030,0.01204615,0.,-0.00537286,-0.39013069,0.,-0
 .22723265,-0.00443505,0.,0.00671432,0.43316155,0.,-0.00132014,0.,0.,-0
 .00369930,0.,0.,-0.01333347,0.,0.,0.00698748,0.,0.,0.01136543,0.056349
 92,0.,0.01804786,-0.00390970,0.,0.00118718,-0.33226160,0.,-0.31318563,
 0.00480988,0.,-0.00363012,0.27501150,0.,0.29758070\\0.00017360,0.,0.00
 018134,-0.00005597,0.,-0.00013080,0.00014722,0.,0.00001118,-0.00007775
 ,0.,-0.00000110,-0.00018709,0.,-0.00006062\\\@


 SEE YOU NOW,
 YOUR BAIT OF FALSEHOOD TAKES THIS CARP OF TRUTH.
 AND THUS DO WE OF WISDOM AND OF REACH...
 BY INDIRECTIONS FIND DIRECTIONS OUT.    -- HAMLET, II, 1
 Job cpu time:  0 days  0 hours  0 minutes  3.1 seconds.
 File lengths (MBytes):  RWF=      5 Int=      0 D2E=      0 Chk=      1 Scr=      1
 Normal termination of Gaussian 09 at Sat Sep 22 15:35:27 2018.
