 Entering Gaussian System, Link 0=g09
 Input=trans_butadiene.com
 Output=trans_butadiene.log
 Initial command:
 /global/g09-revC/l1.exe /scratch/cn410107.137062/Gau-20968.inp -scrdir=/scratch/cn410107.137062/
 Entering Link 1 = /global/g09-revC/l1.exe PID=     20969.
  
 Copyright (c) 1988,1990,1992,1993,1995,1998,2003,2009,2011,
            Gaussian, Inc.  All Rights Reserved.
  
 This is part of the Gaussian(R) 09 program.  It is based on
 the Gaussian(R) 03 system (copyright 2003, Gaussian, Inc.),
 the Gaussian(R) 98 system (copyright 1998, Gaussian, Inc.),
 the Gaussian(R) 94 system (copyright 1995, Gaussian, Inc.),
 the Gaussian 92(TM) system (copyright 1992, Gaussian, Inc.),
 the Gaussian 90(TM) system (copyright 1990, Gaussian, Inc.),
 the Gaussian 88(TM) system (copyright 1988, Gaussian, Inc.),
 the Gaussian 86(TM) system (copyright 1986, Carnegie Mellon
 University), and the Gaussian 82(TM) system (copyright 1983,
 Carnegie Mellon University). Gaussian is a federally registered
 trademark of Gaussian, Inc.
  
 This software contains proprietary and confidential information,
 including trade secrets, belonging to Gaussian, Inc.
  
 This software is provided under written license and may be
 used, copied, transmitted, or stored only in accord with that
 written license.
  
 The following legend is applicable only to US Government
 contracts under FAR:
  
                    RESTRICTED RIGHTS LEGEND
  
 Use, reproduction and disclosure by the US Government is
 subject to restrictions as set forth in subparagraphs (a)
 and (c) of the Commercial Computer Software - Restricted
 Rights clause in FAR 52.227-19.
  
 Gaussian, Inc.
 340 Quinnipiac St., Bldg. 40, Wallingford CT 06492
  
  
 ---------------------------------------------------------------
 Warning -- This program may not be used in any manner that
 competes with the business of Gaussian, Inc. or will provide
 assistance to any competitor of Gaussian, Inc.  The licensee
 of this program is prohibited from giving any competitor of
 Gaussian, Inc. access to this program.  By using this program,
 the user acknowledges that Gaussian, Inc. is engaged in the
 business of creating and licensing software in the field of
 computational chemistry and represents and warrants to the
 licensee that it is not a competitor of Gaussian, Inc. and that
 it will not use this program in any manner prohibited above.
 ---------------------------------------------------------------
  

 Cite this work as:
 Gaussian 09, Revision C.01,
 M. J. Frisch, G. W. Trucks, H. B. Schlegel, G. E. Scuseria, 
 M. A. Robb, J. R. Cheeseman, G. Scalmani, V. Barone, B. Mennucci, 
 G. A. Petersson, H. Nakatsuji, M. Caricato, X. Li, H. P. Hratchian, 
 A. F. Izmaylov, J. Bloino, G. Zheng, J. L. Sonnenberg, M. Hada, 
 M. Ehara, K. Toyota, R. Fukuda, J. Hasegawa, M. Ishida, T. Nakajima, 
 Y. Honda, O. Kitao, H. Nakai, T. Vreven, J. A. Montgomery, Jr., 
 J. E. Peralta, F. Ogliaro, M. Bearpark, J. J. Heyd, E. Brothers, 
 K. N. Kudin, V. N. Staroverov, T. Keith, R. Kobayashi, J. Normand, 
 K. Raghavachari, A. Rendell, J. C. Burant, S. S. Iyengar, J. Tomasi, 
 M. Cossi, N. Rega, J. M. Millam, M. Klene, J. E. Knox, J. B. Cross, 
 V. Bakken, C. Adamo, J. Jaramillo, R. Gomperts, R. E. Stratmann, 
 O. Yazyev, A. J. Austin, R. Cammi, C. Pomelli, J. W. Ochterski, 
 R. L. Martin, K. Morokuma, V. G. Zakrzewski, G. A. Voth, 
 P. Salvador, J. J. Dannenberg, S. Dapprich, A. D. Daniels, 
 O. Farkas, J. B. Foresman, J. V. Ortiz, J. Cioslowski, 
 and D. J. Fox, Gaussian, Inc., Wallingford CT, 2010.
 
 ******************************************
 Gaussian 09:  EM64L-G09RevC.01 23-Sep-2011
                22-Sep-2018 
 ******************************************
 %nproc=2
 Will use up to    2 processors via shared memory.
 %mem=2GB
 -------------------
 #HF STO-3G opt freq
 -------------------
 1/18=20,19=15,38=1/1,3;
 2/9=110,12=2,17=6,18=5,40=1/2;
 3/6=3,11=9,16=1,25=1,30=1,71=1/1,2,3;
 4//1;
 5/5=2,38=5/2;
 6/7=2,8=2,9=2,10=2,28=1/1;
 7//1,2,3,16;
 1/18=20,19=15/3(2);
 2/9=110/2;
 99//99;
 2/9=110/2;
 3/6=3,11=9,16=1,25=1,30=1,71=1/1,2,3;
 4/5=5,16=3/1;
 5/5=2,38=5/2;
 7//1,2,3,16;
 1/18=20,19=15/3(-5);
 2/9=110/2;
 6/7=2,8=2,9=2,10=2,19=2,28=1/1;
 99/9=1/99;
 ---------------
 trans_butadiene
 ---------------
 Charge =  0 Multiplicity = 1
 Symbolic Z-Matrix:
 C1
 C2                   1     1.4 
 C3                   2     1.4      1     109. 
 C4                   3     1.4      2     109.     1     180.     0
 H5                   1     1.       2     120.     3     180.     0
 H6                   1     1.       2     120.     3     0.       0
 H7                   2     1.       3     120.     4     0.       0
 H8                   3     1.       2     120.     1     0.       0
 H9                   4     1.       3     120.     2     180.     0
 H10                  4     1.       3     120.     2     0.       0
 

 GradGradGradGradGradGradGradGradGradGradGradGradGradGradGradGradGradGrad
 Berny optimization.
 Initialization pass.
                           ----------------------------
                           !    Initial Parameters    !
                           ! (Angstroms and Degrees)  !
 --------------------------                            --------------------------
 ! Name  Definition              Value          Derivative Info.                !
 --------------------------------------------------------------------------------
 ! R1    R(1,2)                  1.4            estimate D2E/DX2                !
 ! R2    R(1,5)                  1.0            estimate D2E/DX2                !
 ! R3    R(1,6)                  1.0            estimate D2E/DX2                !
 ! R4    R(2,3)                  1.4            estimate D2E/DX2                !
 ! R5    R(2,7)                  1.0            estimate D2E/DX2                !
 ! R6    R(3,4)                  1.4            estimate D2E/DX2                !
 ! R7    R(3,8)                  1.0            estimate D2E/DX2                !
 ! R8    R(4,9)                  1.0            estimate D2E/DX2                !
 ! R9    R(4,10)                 1.0            estimate D2E/DX2                !
 ! A1    A(2,1,5)              120.0            estimate D2E/DX2                !
 ! A2    A(2,1,6)              120.0            estimate D2E/DX2                !
 ! A3    A(5,1,6)              120.0            estimate D2E/DX2                !
 ! A4    A(1,2,3)              109.0            estimate D2E/DX2                !
 ! A5    A(1,2,7)              131.0            estimate D2E/DX2                !
 ! A6    A(3,2,7)              120.0            estimate D2E/DX2                !
 ! A7    A(2,3,4)              109.0            estimate D2E/DX2                !
 ! A8    A(2,3,8)              120.0            estimate D2E/DX2                !
 ! A9    A(4,3,8)              131.0            estimate D2E/DX2                !
 ! A10   A(3,4,9)              120.0            estimate D2E/DX2                !
 ! A11   A(3,4,10)             120.0            estimate D2E/DX2                !
 ! A12   A(9,4,10)             120.0            estimate D2E/DX2                !
 ! D1    D(5,1,2,3)            180.0            estimate D2E/DX2                !
 ! D2    D(5,1,2,7)              0.0            estimate D2E/DX2                !
 ! D3    D(6,1,2,3)              0.0            estimate D2E/DX2                !
 ! D4    D(6,1,2,7)            180.0            estimate D2E/DX2                !
 ! D5    D(1,2,3,4)            180.0            estimate D2E/DX2                !
 ! D6    D(1,2,3,8)              0.0            estimate D2E/DX2                !
 ! D7    D(7,2,3,4)              0.0            estimate D2E/DX2                !
 ! D8    D(7,2,3,8)            180.0            estimate D2E/DX2                !
 ! D9    D(2,3,4,9)            180.0            estimate D2E/DX2                !
 ! D10   D(2,3,4,10)             0.0            estimate D2E/DX2                !
 ! D11   D(8,3,4,9)              0.0            estimate D2E/DX2                !
 ! D12   D(8,3,4,10)           180.0            estimate D2E/DX2                !
 --------------------------------------------------------------------------------
 Trust Radius=3.00D-01 FncErr=1.00D-07 GrdErr=1.00D-07
 Number of steps in this run=     43 maximum allowed number of steps=    100.
 GradGradGradGradGradGradGradGradGradGradGradGradGradGradGradGradGradGrad

                          Input orientation:                          
 ---------------------------------------------------------------------
 Center     Atomic      Atomic             Coordinates (Angstroms)
 Number     Number       Type             X           Y           Z
 ---------------------------------------------------------------------
      1          6           0        0.000000    0.000000    0.000000
      2          6           0        0.000000    0.000000    1.400000
      3          6           0        1.323726    0.000000    1.855795
      4          6           0        1.323726    0.000000    3.255795
      5          1           0       -0.866025    0.000000   -0.500000
      6          1           0        0.866025    0.000000   -0.500000
      7          1           0       -0.754710    0.000000    2.056059
      8          1           0        2.078436    0.000000    1.199736
      9          1           0        2.189751    0.000000    3.755795
     10          1           0        0.457701    0.000000    3.755795
 ---------------------------------------------------------------------
                    Distance matrix (angstroms):
                    1          2          3          4          5
     1  C    0.000000
     2  C    1.400000   0.000000
     3  C    2.279523   1.400000   0.000000
     4  C    3.514606   2.279523   1.400000   0.000000
     5  H    1.000000   2.088061   3.216331   4.347529   0.000000
     6  H    1.000000   2.088061   2.399846   3.783582   1.732051
     7  H    2.190198   1.000000   2.088061   2.399846   2.558482
     8  H    2.399846   2.088061   1.000000   2.190198   3.399846
     9  H    4.347529   3.216331   2.088061   1.000000   5.239233
    10  H    3.783582   2.399846   2.088061   1.000000   4.456910
                    6          7          8          9         10
     6  H    0.000000
     7  H    3.026585   0.000000
     8  H    2.087832   2.959730   0.000000
     9  H    4.456910   3.399846   2.558482   0.000000
    10  H    4.275339   2.087832   3.026585   1.732051   0.000000
 Stoichiometry    C4H6
 Framework group  C2H[SGH(C4H6)]
 Deg. of freedom     9
 Full point group                 C2H     NOp   4
 Largest Abelian subgroup         C2H     NOp   4
 Largest concise Abelian subgroup C2      NOp   2
                         Standard orientation:                         
 ---------------------------------------------------------------------
 Center     Atomic      Atomic             Coordinates (Angstroms)
 Number     Number       Type             X           Y           Z
 ---------------------------------------------------------------------
      1          6           0        0.661863    1.627898    0.000000
      2          6           0        0.661863    0.227898    0.000000
      3          6           0       -0.661863   -0.227898    0.000000
      4          6           0       -0.661863   -1.627898    0.000000
      5          1           0        1.527888    2.127898    0.000000
      6          1           0       -0.204162    2.127898    0.000000
      7          1           0        1.416573   -0.428161    0.000000
      8          1           0       -1.416573    0.428161    0.000000
      9          1           0       -1.527888   -2.127898    0.000000
     10          1           0        0.204162   -2.127898    0.000000
 ---------------------------------------------------------------------
 Rotational constants (GHZ):     37.6517056      5.0583687      4.4592807
 Standard basis: STO-3G (5D, 7F)
 There are    11 symmetry adapted basis functions of AG  symmetry.
 There are     2 symmetry adapted basis functions of BG  symmetry.
 There are     2 symmetry adapted basis functions of AU  symmetry.
 There are    11 symmetry adapted basis functions of BU  symmetry.
 Integral buffers will be    131072 words long.
 Raffenetti 1 integral format.
 Two-electron integral symmetry is turned on.
    26 basis functions,    78 primitive gaussians,    26 cartesian basis functions
    15 alpha electrons       15 beta electrons
       nuclear repulsion energy       107.2691886695 Hartrees.
 NAtoms=   10 NActive=   10 NUniq=    5 SFac= 4.00D+00 NAtFMM=   60 NAOKFM=F Big=F
 One-electron integrals computed using PRISM.
 NBasis=    26 RedAO= T  NBF=    11     2     2    11
 NBsUse=    26 1.00D-06 NBFU=    11     2     2    11
 Harris functional with IExCor=  205 diagonalized for initial guess.
 ExpMin= 1.69D-01 ExpMax= 7.16D+01 ExpMxC= 7.16D+01 IAcc=1 IRadAn=         1 AccDes= 0.00D+00
 HarFok:  IExCor=  205 AccDes= 0.00D+00 IRadAn=         1 IDoV= 1
 ScaDFX=  1.000000  1.000000  1.000000  1.000000
 FoFCou: FMM=F IPFlag=           0 FMFlag=      100000 FMFlg1=           0
         NFxFlg=           0 DoJE=T BraDBF=F KetDBF=T FulRan=T
         Omega=  0.000000  0.000000  1.000000  0.000000  0.000000 ICntrl=     500 IOpCl=  0
         NMat0=    1 NMatS0=    1 NMatT0=    0 NMatD0=    1 NMtDS0=    0 NMtDT0=    0
         I1Cent=           4 NGrid=           0.
 Petite list used in FoFCou.
 Initial guess orbital symmetries:
       Occupied  (BU) (AG) (BU) (AG) (AG) (BU) (AG) (BU) (BU) (AG)
                 (BU) (AG) (AG) (AU) (BG)
       Virtual   (AU) (BG) (BU) (AG) (BU) (BU) (AG) (BU) (AG) (AG)
                 (BU)
 The electronic state of the initial guess is 1-AG.
 Requested convergence on RMS density matrix=1.00D-08 within 128 cycles.
 Requested convergence on MAX density matrix=1.00D-06.
 Requested convergence on             energy=1.00D-06.
 No special actions if energy rises.
 Keep R1 ints in memory in canonical form, NReq=882404.
 SCF Done:  E(RHF) =  -152.927500961     A.U. after   10 cycles
             Convg  =    0.1291D-08             -V/T =  2.0036

 **********************************************************************

            Population analysis using the SCF density.

 **********************************************************************

 Orbital symmetries:
       Occupied  (AG) (BU) (BU) (AG) (AG) (BU) (AG) (BU) (AG) (BU)
                 (BU) (AG) (AG) (AU) (BG)
       Virtual   (AU) (BG) (BU) (AG) (BU) (BU) (AG) (BU) (AG) (AG)
                 (BU)
 The electronic state is 1-AG.
 Alpha  occ. eigenvalues --  -11.03178 -11.03162 -11.00787 -11.00785  -1.05619
 Alpha  occ. eigenvalues --   -0.93320  -0.79656  -0.76024  -0.60834  -0.60149
 Alpha  occ. eigenvalues --   -0.53486  -0.52660  -0.43945  -0.39917  -0.23326
 Alpha virt. eigenvalues --    0.21981   0.38886   0.67301   0.72779   0.75501
 Alpha virt. eigenvalues --    0.79546   0.80005   0.87353   0.92107   1.07025
 Alpha virt. eigenvalues --    1.08087
          Condensed to atoms (all electrons):
              1          2          3          4          5          6
     1  C    4.852209   0.563616  -0.050965   0.001425   0.405372   0.415102
     2  C    0.563616   4.789141   0.433309  -0.050965  -0.027062  -0.025392
     3  C   -0.050965   0.433309   4.789141   0.563616   0.002391  -0.009902
     4  C    0.001425  -0.050965   0.563616   4.852209  -0.000053   0.000146
     5  H    0.405372  -0.027062   0.002391  -0.000053   0.581593  -0.026906
     6  H    0.415102  -0.025392  -0.009902   0.000146  -0.026906   0.574183
     7  H   -0.018981   0.414837  -0.027329  -0.007946  -0.002440   0.001646
     8  H   -0.007946  -0.027329   0.414837  -0.018981   0.000157  -0.001276
     9  H   -0.000053   0.002391  -0.027062   0.405372   0.000001  -0.000003
    10  H    0.000146  -0.009902  -0.025392   0.415102  -0.000003  -0.000003
              7          8          9         10
     1  C   -0.018981  -0.007946  -0.000053   0.000146
     2  C    0.414837  -0.027329   0.002391  -0.009902
     3  C   -0.027329   0.414837  -0.027062  -0.025392
     4  C   -0.007946  -0.018981   0.405372   0.415102
     5  H   -0.002440   0.000157   0.000001  -0.000003
     6  H    0.001646  -0.001276  -0.000003  -0.000003
     7  H    0.556290   0.001825   0.000157  -0.001276
     8  H    0.001825   0.556290  -0.002440   0.001646
     9  H    0.000157  -0.002440   0.581593  -0.026906
    10  H   -0.001276   0.001646  -0.026906   0.574183
 Mulliken atomic charges:
              1
     1  C   -0.159926
     2  C   -0.062644
     3  C   -0.062644
     4  C   -0.159926
     5  H    0.066949
     6  H    0.072404
     7  H    0.083217
     8  H    0.083217
     9  H    0.066949
    10  H    0.072404
 Sum of Mulliken atomic charges =   0.00000
 Mulliken charges with hydrogens summed into heavy atoms:
              1
     1  C   -0.020572
     2  C    0.020572
     3  C    0.020572
     4  C   -0.020572
 Sum of Mulliken charges with hydrogens summed into heavy atoms =   0.00000
 Electronic spatial extent (au):  <R**2>=            303.3894
 Charge=              0.0000 electrons
 Dipole moment (field-independent basis, Debye):
    X=              0.0000    Y=              0.0000    Z=              0.0000  Tot=              0.0000
 Quadrupole moment (field-independent basis, Debye-Ang):
   XX=            -22.8143   YY=            -23.1524   ZZ=            -25.0069
   XY=             -1.0882   XZ=              0.0000   YZ=              0.0000
 Traceless Quadrupole moment (field-independent basis, Debye-Ang):
   XX=              0.8436   YY=              0.5055   ZZ=             -1.3490
   XY=             -1.0882   XZ=              0.0000   YZ=              0.0000
 Octapole moment (field-independent basis, Debye-Ang**2):
  XXX=              0.0000  YYY=              0.0000  ZZZ=              0.0000  XYY=              0.0000
  XXY=              0.0000  XXZ=              0.0000  XZZ=              0.0000  YZZ=              0.0000
  YYZ=              0.0000  XYZ=              0.0000
 Hexadecapole moment (field-independent basis, Debye-Ang**3):
 XXXX=           -105.9091 YYYY=           -257.9501 ZZZZ=            -20.1668 XXXY=            -44.8814
 XXXZ=              0.0000 YYYX=            -46.2128 YYYZ=              0.0000 ZZZX=              0.0000
 ZZZY=              0.0000 XXYY=            -57.3129 XXZZ=            -22.6665 YYZZ=            -48.9695
 XXYZ=              0.0000 YYXZ=              0.0000 ZZXY=            -16.2921
 N-N= 1.072691886695D+02 E-N=-5.708387879053D+02  KE= 1.523823577454D+02
 Symmetry AG   KE= 7.527711176132D+01
 Symmetry BG   KE= 2.782957683902D+00
 Symmetry AU   KE= 2.314537878431D+00
 Symmetry BU   KE= 7.200775042172D+01
 Calling FoFJK, ICntrl=      2127 FMM=F ISym2X=1 I1Cent= 0 IOpClX= 0 NMat=1 NMatS=1 NMatT=0.
 ***** Axes restored to original set *****
 -------------------------------------------------------------------
 Center     Atomic                   Forces (Hartrees/Bohr)
 Number     Number              X              Y              Z
 -------------------------------------------------------------------
      1        6          -0.050165036    0.000000000    0.192327583
      2        6           0.053519588    0.000000000   -0.244265926
      3        6          -0.053519588    0.000000000    0.244265926
      4        6           0.050165036    0.000000000   -0.192327583
      5        1          -0.075922872    0.000000000   -0.054001712
      6        1           0.075064474    0.000000000   -0.045136638
      7        1          -0.076148662    0.000000000    0.048695157
      8        1           0.076148662    0.000000000   -0.048695157
      9        1           0.075922872    0.000000000    0.054001712
     10        1          -0.075064474    0.000000000    0.045136638
 -------------------------------------------------------------------
 Cartesian Forces:  Max     0.244265926 RMS     0.091854564

 GradGradGradGradGradGradGradGradGradGradGradGradGradGradGradGradGradGrad
 Berny optimization.
 Internal  Forces:  Max     0.102971984 RMS     0.053152913
 Search for a local minimum.
 Step number   1 out of a maximum of   43
 All quantities printed in internal units (Hartrees-Bohrs-Radians)
 Mixed Optimization -- RFO/linear search
 Second derivative matrix not updated -- first step.
 ITU=  0
     Eigenvalues ---    0.02089   0.02089   0.02089   0.02089   0.02089
     Eigenvalues ---    0.02089   0.02089   0.16000   0.16000   0.16000
     Eigenvalues ---    0.16000   0.16000   0.16000   0.22000   0.22000
     Eigenvalues ---    0.45621   0.45621   0.45621   0.47688   0.47688
     Eigenvalues ---    0.47688   0.47688   0.47688   0.47688
 RFO step:  Lambda=-1.64643705D-01 EMin= 2.08875573D-02
 Linear search not attempted -- first point.
 Maximum step size (   0.300) exceeded in Quadratic search.
    -- Step size scaled by   0.542
 Iteration  1 RMS(Cart)=  0.07209989 RMS(Int)=  0.00170771
 Iteration  2 RMS(Cart)=  0.00220505 RMS(Int)=  0.00000229
 Iteration  3 RMS(Cart)=  0.00000430 RMS(Int)=  0.00000000
 Iteration  4 RMS(Cart)=  0.00000000 RMS(Int)=  0.00000000
 ClnCor:  largest displacement from symmetrization is 6.51D-12 for atom     4.
 Variable       Old X    -DE/DX   Delta X   Delta X   Delta X     New X
                                 (Linear)    (Quad)   (Total)
    R1        2.64562  -0.09319   0.00000  -0.08139  -0.08139   2.56423
    R2        1.88973   0.09275   0.00000   0.07840   0.07840   1.96812
    R3        1.88973   0.08758   0.00000   0.07402   0.07402   1.96375
    R4        2.64562   0.10297   0.00000   0.08993   0.08993   2.73555
    R5        1.88973   0.08942   0.00000   0.07558   0.07558   1.96530
    R6        2.64562  -0.09319   0.00000  -0.08139  -0.08139   2.56423
    R7        1.88973   0.08942   0.00000   0.07558   0.07558   1.96530
    R8        1.88973   0.09275   0.00000   0.07840   0.07840   1.96812
    R9        1.88973   0.08758   0.00000   0.07402   0.07402   1.96375
    A1        2.09440   0.01011   0.00000   0.01689   0.01689   2.11129
    A2        2.09440  -0.00358   0.00000  -0.00599  -0.00599   2.08841
    A3        2.09440  -0.00653   0.00000  -0.01090  -0.01090   2.08349
    A4        1.90241   0.07254   0.00000   0.10226   0.10226   2.00467
    A5        2.28638  -0.04875   0.00000  -0.07197  -0.07197   2.21441
    A6        2.09440  -0.02379   0.00000  -0.03029  -0.03029   2.06411
    A7        1.90241   0.07254   0.00000   0.10226   0.10226   2.00467
    A8        2.09440  -0.02379   0.00000  -0.03029  -0.03029   2.06411
    A9        2.28638  -0.04875   0.00000  -0.07197  -0.07197   2.21441
   A10        2.09440   0.01011   0.00000   0.01689   0.01689   2.11129
   A11        2.09440  -0.00358   0.00000  -0.00599  -0.00599   2.08841
   A12        2.09440  -0.00653   0.00000  -0.01090  -0.01090   2.08349
    D1        3.14159   0.00000   0.00000   0.00000   0.00000   3.14159
    D2        0.00000   0.00000   0.00000   0.00000   0.00000   0.00000
    D3        0.00000   0.00000   0.00000   0.00000   0.00000   0.00000
    D4        3.14159   0.00000   0.00000   0.00000   0.00000   3.14159
    D5        3.14159   0.00000   0.00000   0.00000   0.00000   3.14159
    D6        0.00000   0.00000   0.00000   0.00000   0.00000   0.00000
    D7        0.00000   0.00000   0.00000   0.00000   0.00000   0.00000
    D8        3.14159   0.00000   0.00000   0.00000   0.00000   3.14159
    D9        3.14159   0.00000   0.00000   0.00000   0.00000   3.14159
   D10        0.00000   0.00000   0.00000   0.00000   0.00000   0.00000
   D11        0.00000   0.00000   0.00000   0.00000   0.00000   0.00000
   D12        3.14159   0.00000   0.00000   0.00000   0.00000   3.14159
         Item               Value     Threshold  Converged?
 Maximum Force            0.102972     0.000450     NO 
 RMS     Force            0.053153     0.000300     NO 
 Maximum Displacement     0.140076     0.001800     NO 
 RMS     Displacement     0.071905     0.001200     NO 
 Predicted change in Energy=-7.248011D-02
 GradGradGradGradGradGradGradGradGradGradGradGradGradGradGradGradGradGrad

                          Input orientation:                          
 ---------------------------------------------------------------------
 Center     Atomic      Atomic             Coordinates (Angstroms)
 Number     Number       Type             X           Y           Z
 ---------------------------------------------------------------------
      1          6           0       -0.032980    0.000000   -0.017732
      2          6           0       -0.001706    0.000000    1.338839
      3          6           0        1.325432    0.000000    1.916957
      4          6           0        1.356706    0.000000    3.273527
      5          1           0       -0.938123    0.000000   -0.532909
      6          1           0        0.857972    0.000000   -0.552595
      7          1           0       -0.819028    0.000000    1.981934
      8          1           0        2.142754    0.000000    1.273861
      9          1           0        2.261849    0.000000    3.788705
     10          1           0        0.465754    0.000000    3.808391
 ---------------------------------------------------------------------
                    Distance matrix (angstroms):
                    1          2          3          4          5
     1  C    0.000000
     2  C    1.356931   0.000000
     3  C    2.363959   1.447590   0.000000
     4  C    3.572620   2.363959   1.356931   0.000000
     5  H    1.041485   2.092920   3.335495   4.444682   0.000000
     6  H    1.039170   2.077636   2.513405   3.858490   1.796203
     7  H    2.148613   1.039994   2.145445   2.530224   2.517662
     8  H    2.530224   2.145445   1.039994   2.148613   3.571585
     9  H    4.444682   3.335495   2.092920   1.041485   5.377375
    10  H    3.858490   2.513405   2.077636   1.039170   4.562648
                    6          7          8          9         10
     6  H    0.000000
     7  H    3.039107   0.000000
     8  H    2.233071   3.045246   0.000000
     9  H    4.562648   3.571585   2.517662   0.000000
    10  H    4.378588   2.233071   3.039107   1.796203   0.000000
 Stoichiometry    C4H6
 Framework group  C2H[SGH(C4H6)]
 Deg. of freedom     9
 Full point group                 C2H     NOp   4
 Largest Abelian subgroup         C2H     NOp   4
 Largest concise Abelian subgroup C2      NOp   2
                         Standard orientation:                         
 ---------------------------------------------------------------------
 Center     Atomic      Atomic             Coordinates (Angstroms)
 Number     Number       Type             X           Y           Z
 ---------------------------------------------------------------------
      1          6           0        0.656731    1.661207    0.000000
      2          6           0        0.656731    0.304276    0.000000
      3          6           0       -0.656731   -0.304276    0.000000
      4          6           0       -0.656731   -1.661207    0.000000
      5          1           0        1.549760    2.197108    0.000000
      6          1           0       -0.246312    2.175394    0.000000
      7          1           0        1.488657   -0.319812    0.000000
      8          1           0       -1.488657    0.319812    0.000000
      9          1           0       -1.549760   -2.197108    0.000000
     10          1           0        0.246312   -2.175394    0.000000
 ---------------------------------------------------------------------
 Rotational constants (GHZ):     38.8147880      4.8113096      4.2806937
 Standard basis: STO-3G (5D, 7F)
 There are    11 symmetry adapted basis functions of AG  symmetry.
 There are     2 symmetry adapted basis functions of BG  symmetry.
 There are     2 symmetry adapted basis functions of AU  symmetry.
 There are    11 symmetry adapted basis functions of BU  symmetry.
 Integral buffers will be    131072 words long.
 Raffenetti 1 integral format.
 Two-electron integral symmetry is turned on.
    26 basis functions,    78 primitive gaussians,    26 cartesian basis functions
    15 alpha electrons       15 beta electrons
       nuclear repulsion energy       105.7756114112 Hartrees.
 NAtoms=   10 NActive=   10 NUniq=    5 SFac= 4.00D+00 NAtFMM=   60 NAOKFM=F Big=F
 One-electron integrals computed using PRISM.
 NBasis=    26 RedAO= T  NBF=    11     2     2    11
 NBsUse=    26 1.00D-06 NBFU=    11     2     2    11
 Initial guess read from the read-write file.
 B after Tr=     0.000000    0.000000    0.000000
         Rot=    1.000000    0.000000    0.000000    0.000000 Ang=   0.00 deg.
 Initial guess orbital symmetries:
       Occupied  (AG) (BU) (BU) (AG) (AG) (BU) (AG) (BU) (AG) (BU)
                 (BU) (AG) (AG) (AU) (BG)
       Virtual   (AU) (BG) (BU) (AG) (BU) (BU) (AG) (BU) (AG) (AG)
                 (BU)
 Harris functional with IExCor=  205 diagonalized for initial guess.
 ExpMin= 1.69D-01 ExpMax= 7.16D+01 ExpMxC= 7.16D+01 IAcc=1 IRadAn=         1 AccDes= 0.00D+00
 HarFok:  IExCor=  205 AccDes= 0.00D+00 IRadAn=         1 IDoV= 1
 ScaDFX=  1.000000  1.000000  1.000000  1.000000
 FoFCou: FMM=F IPFlag=           0 FMFlag=      100000 FMFlg1=           0
         NFxFlg=           0 DoJE=T BraDBF=F KetDBF=T FulRan=T
         Omega=  0.000000  0.000000  1.000000  0.000000  0.000000 ICntrl=     500 IOpCl=  0
         NMat0=    1 NMatS0=    1 NMatT0=    0 NMatD0=    1 NMtDS0=    0 NMtDT0=    0
         I1Cent=           4 NGrid=           0.
 Petite list used in FoFCou.
 Requested convergence on RMS density matrix=1.00D-08 within 128 cycles.
 Requested convergence on MAX density matrix=1.00D-06.
 Requested convergence on             energy=1.00D-06.
 No special actions if energy rises.
 Keep R1 ints in memory in canonical form, NReq=882404.
 SCF Done:  E(RHF) =  -152.994155818     A.U. after    9 cycles
             Convg  =    0.6181D-08             -V/T =  2.0055
 Calling FoFJK, ICntrl=      2127 FMM=F ISym2X=1 I1Cent= 0 IOpClX= 0 NMat=1 NMatS=1 NMatT=0.
 ***** Axes restored to original set *****
 -------------------------------------------------------------------
 Center     Atomic                   Forces (Hartrees/Bohr)
 Number     Number              X              Y              Z
 -------------------------------------------------------------------
      1        6          -0.027293623    0.000000000    0.104542190
      2        6           0.037620761    0.000000000   -0.128598624
      3        6          -0.037620761    0.000000000    0.128598624
      4        6           0.027293623    0.000000000   -0.104542190
      5        1          -0.032264819    0.000000000   -0.025593974
      6        1           0.032889973    0.000000000   -0.024596658
      7        1          -0.037167057    0.000000000    0.020215062
      8        1           0.037167057    0.000000000   -0.020215062
      9        1           0.032264819    0.000000000    0.025593974
     10        1          -0.032889973    0.000000000    0.024596658
 -------------------------------------------------------------------
 Cartesian Forces:  Max     0.128598624 RMS     0.048166236

 GradGradGradGradGradGradGradGradGradGradGradGradGradGradGradGradGradGrad
 Berny optimization.
 Using GEDIIS/GDIIS optimizer.
 Internal  Forces:  Max     0.053722490 RMS     0.026515967
 Search for a local minimum.
 Step number   2 out of a maximum of   43
 All quantities printed in internal units (Hartrees-Bohrs-Radians)
 Mixed Optimization -- RFO/linear search
 Update second derivatives using D2CorX and points    1    2
 DE= -6.67D-02 DEPred=-7.25D-02 R= 9.20D-01
 SS=  1.41D+00  RLast= 3.00D-01 DXNew= 5.0454D-01 9.0000D-01
 Trust test= 9.20D-01 RLast= 3.00D-01 DXMaxT set to 5.05D-01
 ITU=  1  0
 Use linear search instead of GDIIS.
     Eigenvalues ---    0.02089   0.02089   0.02089   0.02089   0.02089
     Eigenvalues ---    0.02089   0.02089   0.15913   0.16000   0.16000
     Eigenvalues ---    0.16000   0.16000   0.16128   0.22000   0.23716
     Eigenvalues ---    0.44249   0.45621   0.46031   0.47658   0.47688
     Eigenvalues ---    0.47688   0.47688   0.47688   0.59689
 RFO step:  Lambda=-5.24731001D-03 EMin= 2.08875573D-02
 Quartic linear search produced a step of  1.13683.
 Iteration  1 RMS(Cart)=  0.10234818 RMS(Int)=  0.00412525
 Iteration  2 RMS(Cart)=  0.00545156 RMS(Int)=  0.00001153
 Iteration  3 RMS(Cart)=  0.00001879 RMS(Int)=  0.00000000
 Iteration  4 RMS(Cart)=  0.00000000 RMS(Int)=  0.00000000
 ClnCor:  largest displacement from symmetrization is 1.31D-09 for atom     1.
 Variable       Old X    -DE/DX   Delta X   Delta X   Delta X     New X
                                 (Linear)    (Quad)   (Total)
    R1        2.56423  -0.05372  -0.09252  -0.03206  -0.12459   2.43964
    R2        1.96812   0.04070   0.08912  -0.02634   0.06278   2.03090
    R3        1.96375   0.04086   0.08415  -0.01411   0.07003   2.03378
    R4        2.73555   0.04561   0.10224  -0.02821   0.07403   2.80958
    R5        1.96530   0.04171   0.08592  -0.01445   0.07147   2.03677
    R6        2.56423  -0.05372  -0.09252  -0.03206  -0.12459   2.43964
    R7        1.96530   0.04171   0.08592  -0.01445   0.07147   2.03677
    R8        1.96812   0.04070   0.08912  -0.02634   0.06278   2.03090
    R9        1.96375   0.04086   0.08415  -0.01411   0.07003   2.03378
    A1        2.11129   0.00552   0.01920   0.00865   0.02785   2.13913
    A2        2.08841   0.00132  -0.00681   0.03934   0.03253   2.12094
    A3        2.08349  -0.00685  -0.01239  -0.04798  -0.06038   2.02311
    A4        2.00467   0.04027   0.11625   0.04678   0.16303   2.16770
    A5        2.21441  -0.02711  -0.08182  -0.03612  -0.11794   2.09647
    A6        2.06411  -0.01316  -0.03443  -0.01066  -0.04509   2.01901
    A7        2.00467   0.04027   0.11625   0.04678   0.16303   2.16770
    A8        2.06411  -0.01316  -0.03443  -0.01066  -0.04509   2.01901
    A9        2.21441  -0.02711  -0.08182  -0.03612  -0.11794   2.09647
   A10        2.11129   0.00552   0.01920   0.00865   0.02785   2.13913
   A11        2.08841   0.00132  -0.00681   0.03934   0.03253   2.12094
   A12        2.08349  -0.00685  -0.01239  -0.04798  -0.06038   2.02311
    D1        3.14159   0.00000   0.00000   0.00000   0.00000   3.14159
    D2        0.00000   0.00000   0.00000   0.00000   0.00000   0.00000
    D3        0.00000   0.00000   0.00000   0.00000   0.00000   0.00000
    D4        3.14159   0.00000   0.00000   0.00000   0.00000   3.14159
    D5        3.14159   0.00000   0.00000   0.00000   0.00000   3.14159
    D6        0.00000   0.00000   0.00000   0.00000   0.00000   0.00000
    D7        0.00000   0.00000   0.00000   0.00000   0.00000   0.00000
    D8        3.14159   0.00000   0.00000   0.00000   0.00000   3.14159
    D9        3.14159   0.00000   0.00000   0.00000   0.00000   3.14159
   D10        0.00000   0.00000   0.00000   0.00000   0.00000   0.00000
   D11        0.00000   0.00000   0.00000   0.00000   0.00000   0.00000
   D12        3.14159   0.00000   0.00000   0.00000   0.00000   3.14159
         Item               Value     Threshold  Converged?
 Maximum Force            0.053722     0.000450     NO 
 RMS     Force            0.026516     0.000300     NO 
 Maximum Displacement     0.243063     0.001800     NO 
 RMS     Displacement     0.101342     0.001200     NO 
 Predicted change in Energy=-2.426830D-02
 GradGradGradGradGradGradGradGradGradGradGradGradGradGradGradGradGradGrad

                          Input orientation:                          
 ---------------------------------------------------------------------
 Center     Atomic      Atomic             Coordinates (Angstroms)
 Number     Number       Type             X           Y           Z
 ---------------------------------------------------------------------
      1          6           0       -0.065036    0.000000   -0.036374
      2          6           0        0.020650    0.000000    1.251782
      3          6           0        1.303076    0.000000    2.004013
      4          6           0        1.388762    0.000000    3.292170
      5          1           0       -1.007192    0.000000   -0.553422
      6          1           0        0.813029    0.000000   -0.658688
      7          1           0       -0.873692    0.000000    1.853311
      8          1           0        2.197418    0.000000    1.402485
      9          1           0        2.330918    0.000000    3.809217
     10          1           0        0.510697    0.000000    3.914484
 ---------------------------------------------------------------------
                    Distance matrix (angstroms):
                    1          2          3          4          5
     1  C    0.000000
     2  C    1.291003   0.000000
     3  C    2.456606   1.486765   0.000000
     4  C    3.632180   2.456606   1.291003   0.000000
     5  H    1.074707   2.077310   3.446420   4.530912   0.000000
     6  H    1.076231   2.068275   2.707420   3.992586   1.823262
     7  H    2.055440   1.077814   2.181979   2.681234   2.410432
     8  H    2.681234   2.181979   1.077814   2.055440   3.754344
     9  H    4.530912   3.446420   2.077310   1.074707   5.493231
    10  H    3.992586   2.707420   2.068275   1.076231   4.718704
                    6          7          8          9         10
     6  H    0.000000
     7  H    3.025751   0.000000
     8  H    2.482935   3.104024   0.000000
     9  H    4.718704   3.754344   2.410432   0.000000
    10  H    4.583155   2.482935   3.025751   1.823262   0.000000
 Stoichiometry    C4H6
 Framework group  C2H[SGH(C4H6)]
 Deg. of freedom     9
 Full point group                 C2H     NOp   4
 Largest Abelian subgroup         C2H     NOp   4
 Largest concise Abelian subgroup C2      NOp   2
                         Standard orientation:                         
 ---------------------------------------------------------------------
 Center     Atomic      Atomic             Coordinates (Angstroms)
 Number     Number       Type             X           Y           Z
 ---------------------------------------------------------------------
      1          6           0        0.614836    1.708848    0.000000
      2          6           0        0.614836    0.417844    0.000000
      3          6           0       -0.614836   -0.417844    0.000000
      4          6           0       -0.614836   -1.708848    0.000000
      5          1           0        1.520597    2.287287    0.000000
      6          1           0       -0.302597    2.271511    0.000000
      7          1           0        1.547130   -0.122999    0.000000
      8          1           0       -1.547130    0.122999    0.000000
      9          1           0       -1.520597   -2.287287    0.000000
     10          1           0        0.302597   -2.271511    0.000000
 ---------------------------------------------------------------------
 Rotational constants (GHZ):     43.0044601      4.5401485      4.1065988
 Standard basis: STO-3G (5D, 7F)
 There are    11 symmetry adapted basis functions of AG  symmetry.
 There are     2 symmetry adapted basis functions of BG  symmetry.
 There are     2 symmetry adapted basis functions of AU  symmetry.
 There are    11 symmetry adapted basis functions of BU  symmetry.
 Integral buffers will be    131072 words long.
 Raffenetti 1 integral format.
 Two-electron integral symmetry is turned on.
    26 basis functions,    78 primitive gaussians,    26 cartesian basis functions
    15 alpha electrons       15 beta electrons
       nuclear repulsion energy       105.1401541425 Hartrees.
 NAtoms=   10 NActive=   10 NUniq=    5 SFac= 4.00D+00 NAtFMM=   60 NAOKFM=F Big=F
 One-electron integrals computed using PRISM.
 NBasis=    26 RedAO= T  NBF=    11     2     2    11
 NBsUse=    26 1.00D-06 NBFU=    11     2     2    11
 Initial guess read from the read-write file.
 B after Tr=     0.000000    0.000000    0.000000
         Rot=    1.000000    0.000000    0.000000    0.000000 Ang=   0.00 deg.
 Initial guess orbital symmetries:
       Occupied  (BU) (AG) (BU) (AG) (AG) (BU) (AG) (BU) (AG) (BU)
                 (BU) (AG) (AG) (AU) (BG)
       Virtual   (AU) (BG) (BU) (AG) (BU) (BU) (AG) (AG) (BU) (BU)
                 (AG)
 Harris functional with IExCor=  205 diagonalized for initial guess.
 ExpMin= 1.69D-01 ExpMax= 7.16D+01 ExpMxC= 7.16D+01 IAcc=1 IRadAn=         1 AccDes= 0.00D+00
 HarFok:  IExCor=  205 AccDes= 0.00D+00 IRadAn=         1 IDoV= 1
 ScaDFX=  1.000000  1.000000  1.000000  1.000000
 FoFCou: FMM=F IPFlag=           0 FMFlag=      100000 FMFlg1=           0
         NFxFlg=           0 DoJE=T BraDBF=F KetDBF=T FulRan=T
         Omega=  0.000000  0.000000  1.000000  0.000000  0.000000 ICntrl=     500 IOpCl=  0
         NMat0=    1 NMatS0=    1 NMatT0=    0 NMatD0=    1 NMtDS0=    0 NMtDT0=    0
         I1Cent=           4 NGrid=           0.
 Petite list used in FoFCou.
 Requested convergence on RMS density matrix=1.00D-08 within 128 cycles.
 Requested convergence on MAX density matrix=1.00D-06.
 Requested convergence on             energy=1.00D-06.
 No special actions if energy rises.
 Keep R1 ints in memory in canonical form, NReq=882404.
 SCF Done:  E(RHF) =  -153.018490491     A.U. after   10 cycles
             Convg  =    0.4953D-08             -V/T =  2.0059
 Calling FoFJK, ICntrl=      2127 FMM=F ISym2X=1 I1Cent= 0 IOpClX= 0 NMat=1 NMatS=1 NMatT=0.
 ***** Axes restored to original set *****
 -------------------------------------------------------------------
 Center     Atomic                   Forces (Hartrees/Bohr)
 Number     Number              X              Y              Z
 -------------------------------------------------------------------
      1        6           0.000926453    0.000000000   -0.032607121
      2        6           0.002394933    0.000000000    0.032385188
      3        6          -0.002394933    0.000000000   -0.032385188
      4        6          -0.000926453    0.000000000    0.032607121
      5        1          -0.005236367    0.000000000   -0.002722254
      6        1           0.003459131    0.000000000   -0.004112735
      7        1          -0.004460009    0.000000000    0.004424168
      8        1           0.004460009    0.000000000   -0.004424168
      9        1           0.005236367    0.000000000    0.002722254
     10        1          -0.003459131    0.000000000    0.004112735
 -------------------------------------------------------------------
 Cartesian Forces:  Max     0.032607121 RMS     0.012170440

 GradGradGradGradGradGradGradGradGradGradGradGradGradGradGradGradGradGrad
 Berny optimization.
 Using GEDIIS/GDIIS optimizer.
 Internal  Forces:  Max     0.039411607 RMS     0.010057743
 Search for a local minimum.
 Step number   3 out of a maximum of   43
 All quantities printed in internal units (Hartrees-Bohrs-Radians)
 Mixed Optimization -- RFO/linear search
 Update second derivatives using D2CorX and points    2    3
 DE= -2.43D-02 DEPred=-2.43D-02 R= 1.00D+00
 SS=  1.41D+00  RLast= 4.01D-01 DXNew= 8.4853D-01 1.2016D+00
 Trust test= 1.00D+00 RLast= 4.01D-01 DXMaxT set to 8.49D-01
 ITU=  1  1  0
 Use linear search instead of GDIIS.
     Eigenvalues ---    0.02089   0.02089   0.02089   0.02089   0.02089
     Eigenvalues ---    0.02089   0.02089   0.15542   0.16000   0.16000
     Eigenvalues ---    0.16000   0.16000   0.16145   0.21516   0.22000
     Eigenvalues ---    0.45621   0.45955   0.46464   0.47688   0.47688
     Eigenvalues ---    0.47688   0.47688   0.48309   0.63600
 RFO step:  Lambda=-5.15545463D-03 EMin= 2.08875573D-02
 Quartic linear search produced a step of -0.11324.
 Iteration  1 RMS(Cart)=  0.04060607 RMS(Int)=  0.00009214
 Iteration  2 RMS(Cart)=  0.00011886 RMS(Int)=  0.00000000
 Iteration  3 RMS(Cart)=  0.00000001 RMS(Int)=  0.00000000
 ClnCor:  largest displacement from symmetrization is 7.00D-13 for atom    10.
 Variable       Old X    -DE/DX   Delta X   Delta X   Delta X     New X
                                 (Linear)    (Quad)   (Total)
    R1        2.43964   0.03941   0.01411   0.05305   0.06716   2.50680
    R2        2.03090   0.00590  -0.00711   0.02282   0.01571   2.04661
    R3        2.03378   0.00520  -0.00793   0.02269   0.01476   2.04854
    R4        2.80958   0.00385  -0.00838   0.02153   0.01315   2.82273
    R5        2.03677   0.00617  -0.00809   0.02474   0.01665   2.05342
    R6        2.43964   0.03941   0.01411   0.05305   0.06716   2.50680
    R7        2.03677   0.00617  -0.00809   0.02474   0.01665   2.05342
    R8        2.03090   0.00590  -0.00711   0.02282   0.01571   2.04661
    R9        2.03378   0.00520  -0.00793   0.02269   0.01476   2.04854
    A1        2.13913  -0.00110  -0.00315  -0.00037  -0.00352   2.13561
    A2        2.12094   0.00193  -0.00368   0.01563   0.01194   2.13288
    A3        2.02311  -0.00083   0.00684  -0.01526  -0.00842   2.01470
    A4        2.16770  -0.00006  -0.01846   0.03100   0.01254   2.18024
    A5        2.09647   0.00123   0.01336  -0.01621  -0.00286   2.09361
    A6        2.01901  -0.00118   0.00511  -0.01479  -0.00969   2.00933
    A7        2.16770  -0.00006  -0.01846   0.03100   0.01254   2.18024
    A8        2.01901  -0.00118   0.00511  -0.01479  -0.00969   2.00933
    A9        2.09647   0.00123   0.01336  -0.01621  -0.00286   2.09361
   A10        2.13913  -0.00110  -0.00315  -0.00037  -0.00352   2.13561
   A11        2.12094   0.00193  -0.00368   0.01563   0.01194   2.13288
   A12        2.02311  -0.00083   0.00684  -0.01526  -0.00842   2.01470
    D1        3.14159   0.00000   0.00000   0.00000   0.00000   3.14159
    D2        0.00000   0.00000   0.00000   0.00000   0.00000   0.00000
    D3        0.00000   0.00000   0.00000   0.00000   0.00000   0.00000
    D4        3.14159   0.00000   0.00000   0.00000   0.00000   3.14159
    D5        3.14159   0.00000   0.00000   0.00000   0.00000   3.14159
    D6        0.00000   0.00000   0.00000   0.00000   0.00000   0.00000
    D7        0.00000   0.00000   0.00000   0.00000   0.00000   0.00000
    D8        3.14159   0.00000   0.00000   0.00000   0.00000   3.14159
    D9        3.14159   0.00000   0.00000   0.00000   0.00000   3.14159
   D10        0.00000   0.00000   0.00000   0.00000   0.00000   0.00000
   D11        0.00000   0.00000   0.00000   0.00000   0.00000   0.00000
   D12        3.14159   0.00000   0.00000   0.00000   0.00000   3.14159
         Item               Value     Threshold  Converged?
 Maximum Force            0.039412     0.000450     NO 
 RMS     Force            0.010058     0.000300     NO 
 Maximum Displacement     0.115281     0.001800     NO 
 RMS     Displacement     0.040664     0.001200     NO 
 Predicted change in Energy=-3.015545D-03
 GradGradGradGradGradGradGradGradGradGradGradGradGradGradGradGradGradGrad

                          Input orientation:                          
 ---------------------------------------------------------------------
 Center     Atomic      Atomic             Coordinates (Angstroms)
 Number     Number       Type             X           Y           Z
 ---------------------------------------------------------------------
      1          6           0       -0.073920    0.000000   -0.078083
      2          6           0        0.020568    0.000000    1.245090
      3          6           0        1.303158    0.000000    2.010705
      4          6           0        1.397646    0.000000    3.333878
      5          1           0       -1.027702    0.000000   -0.591145
      6          1           0        0.799857    0.000000   -0.719692
      7          1           0       -0.879864    0.000000    1.853348
      8          1           0        2.203590    0.000000    1.402447
      9          1           0        2.351428    0.000000    3.846940
     10          1           0        0.523869    0.000000    3.975488
 ---------------------------------------------------------------------
                    Distance matrix (angstroms):
                    1          2          3          4          5
     1  C    0.000000
     2  C    1.326542   0.000000
     3  C    2.501876   1.493722   0.000000
     4  C    3.715775   2.501876   1.326542   0.000000
     5  H    1.083020   2.114386   3.493213   4.613905   0.000000
     6  H    1.084043   2.113684   2.776398   4.097412   1.832075
     7  H    2.092838   1.086625   2.188686   2.716435   2.448959
     8  H    2.716435   2.188686   1.086625   2.092838   3.796796
     9  H    4.613905   3.493213   2.114386   1.083020   5.578093
    10  H    4.097412   2.776398   2.113684   1.084043   4.823018
                    6          7          8          9         10
     6  H    0.000000
     7  H    3.072783   0.000000
     8  H    2.544394   3.116247   0.000000
     9  H    4.823018   3.796796   2.448959   0.000000
    10  H    4.703284   2.544394   3.072783   1.832075   0.000000
 Stoichiometry    C4H6
 Framework group  C2H[SGH(C4H6)]
 Deg. of freedom     9
 Full point group                 C2H     NOp   4
 Largest Abelian subgroup         C2H     NOp   4
 Largest concise Abelian subgroup C2      NOp   2
                         Standard orientation:                         
 ---------------------------------------------------------------------
 Center     Atomic      Atomic             Coordinates (Angstroms)
 Number     Number       Type             X           Y           Z
 ---------------------------------------------------------------------
      1          6           0        0.612400    1.754056    0.000000
      2          6           0        0.612400    0.427514    0.000000
      3          6           0       -0.612400   -0.427514    0.000000
      4          6           0       -0.612400   -1.754056    0.000000
      5          1           0        1.527215    2.333751    0.000000
      6          1           0       -0.304859    2.331798    0.000000
      7          1           0        1.553869   -0.115063    0.000000
      8          1           0       -1.553869    0.115063    0.000000
      9          1           0       -1.527215   -2.333751    0.000000
     10          1           0        0.304859   -2.331798    0.000000
 ---------------------------------------------------------------------
 Rotational constants (GHZ):     42.5650941      4.3538683      3.9498489
 Standard basis: STO-3G (5D, 7F)
 There are    11 symmetry adapted basis functions of AG  symmetry.
 There are     2 symmetry adapted basis functions of BG  symmetry.
 There are     2 symmetry adapted basis functions of AU  symmetry.
 There are    11 symmetry adapted basis functions of BU  symmetry.
 Integral buffers will be    131072 words long.
 Raffenetti 1 integral format.
 Two-electron integral symmetry is turned on.
    26 basis functions,    78 primitive gaussians,    26 cartesian basis functions
    15 alpha electrons       15 beta electrons
       nuclear repulsion energy       103.3538672092 Hartrees.
 NAtoms=   10 NActive=   10 NUniq=    5 SFac= 4.00D+00 NAtFMM=   60 NAOKFM=F Big=F
 One-electron integrals computed using PRISM.
 NBasis=    26 RedAO= T  NBF=    11     2     2    11
 NBsUse=    26 1.00D-06 NBFU=    11     2     2    11
 Initial guess read from the read-write file.
 B after Tr=     0.000000    0.000000    0.000000
         Rot=    1.000000    0.000000    0.000000    0.000000 Ang=   0.00 deg.
 Initial guess orbital symmetries:
       Occupied  (BU) (AG) (BU) (AG) (AG) (BU) (AG) (BU) (BU) (AG)
                 (AG) (BU) (AG) (AU) (BG)
       Virtual   (AU) (BG) (BU) (AG) (BU) (BU) (AG) (AG) (BU) (BU)
                 (AG)
 Harris functional with IExCor=  205 diagonalized for initial guess.
 ExpMin= 1.69D-01 ExpMax= 7.16D+01 ExpMxC= 7.16D+01 IAcc=1 IRadAn=         1 AccDes= 0.00D+00
 HarFok:  IExCor=  205 AccDes= 0.00D+00 IRadAn=         1 IDoV= 1
 ScaDFX=  1.000000  1.000000  1.000000  1.000000
 FoFCou: FMM=F IPFlag=           0 FMFlag=      100000 FMFlg1=           0
         NFxFlg=           0 DoJE=T BraDBF=F KetDBF=T FulRan=T
         Omega=  0.000000  0.000000  1.000000  0.000000  0.000000 ICntrl=     500 IOpCl=  0
         NMat0=    1 NMatS0=    1 NMatT0=    0 NMatD0=    1 NMtDS0=    0 NMtDT0=    0
         I1Cent=           4 NGrid=           0.
 Petite list used in FoFCou.
 Requested convergence on RMS density matrix=1.00D-08 within 128 cycles.
 Requested convergence on MAX density matrix=1.00D-06.
 Requested convergence on             energy=1.00D-06.
 No special actions if energy rises.
 Keep R1 ints in memory in canonical form, NReq=882404.
 SCF Done:  E(RHF) =  -153.019630197     A.U. after    8 cycles
             Convg  =    0.7830D-08             -V/T =  2.0072
 Calling FoFJK, ICntrl=      2127 FMM=F ISym2X=1 I1Cent= 0 IOpClX= 0 NMat=1 NMatS=1 NMatT=0.
 ***** Axes restored to original set *****
 -------------------------------------------------------------------
 Center     Atomic                   Forces (Hartrees/Bohr)
 Number     Number              X              Y              Z
 -------------------------------------------------------------------
      1        6           0.004304138    0.000000000    0.017605590
      2        6          -0.002814867    0.000000000   -0.012886389
      3        6           0.002814867    0.000000000    0.012886389
      4        6          -0.004304138    0.000000000   -0.017605590
      5        1           0.000592803    0.000000000    0.002290906
      6        1          -0.000774311    0.000000000    0.002090167
      7        1           0.000706505    0.000000000   -0.001730843
      8        1          -0.000706505    0.000000000    0.001730843
      9        1          -0.000592803    0.000000000   -0.002290906
     10        1           0.000774311    0.000000000   -0.002090167
 -------------------------------------------------------------------
 Cartesian Forces:  Max     0.017605590 RMS     0.005868151

 GradGradGradGradGradGradGradGradGradGradGradGradGradGradGradGradGradGrad
 Berny optimization.
 Using GEDIIS/GDIIS optimizer.
 Internal  Forces:  Max     0.022224466 RMS     0.005793794
 Search for a local minimum.
 Step number   4 out of a maximum of   43
 All quantities printed in internal units (Hartrees-Bohrs-Radians)
 Mixed Optimization -- RFO/linear search
 Update second derivatives using D2CorX and points    2    3    4
 DE= -1.14D-03 DEPred=-3.02D-03 R= 3.78D-01
 Trust test= 3.78D-01 RLast= 1.08D-01 DXMaxT set to 8.49D-01
 ITU=  0  1  1  0
 Use linear search instead of GDIIS.
     Eigenvalues ---    0.02089   0.02089   0.02089   0.02089   0.02089
     Eigenvalues ---    0.02089   0.02089   0.15629   0.16000   0.16000
     Eigenvalues ---    0.16000   0.16090   0.16222   0.22000   0.23734
     Eigenvalues ---    0.44636   0.45621   0.47299   0.47688   0.47688
     Eigenvalues ---    0.47688   0.47689   0.49386   0.90485
 RFO step:  Lambda=-1.60190658D-04 EMin= 2.08875573D-02
 Quartic linear search produced a step of -0.38459.
 Iteration  1 RMS(Cart)=  0.02149609 RMS(Int)=  0.00005137
 Iteration  2 RMS(Cart)=  0.00004942 RMS(Int)=  0.00000000
 Iteration  3 RMS(Cart)=  0.00000000 RMS(Int)=  0.00000000
 ClnCor:  largest displacement from symmetrization is 3.25D-13 for atom    10.
 Variable       Old X    -DE/DX   Delta X   Delta X   Delta X     New X
                                 (Linear)    (Quad)   (Total)
    R1        2.50680  -0.02222  -0.02583   0.00104  -0.02479   2.48202
    R2        2.04661  -0.00161  -0.00604   0.00269  -0.00335   2.04326
    R3        2.04854  -0.00186  -0.00568   0.00175  -0.00392   2.04462
    R4        2.82273  -0.00551  -0.00506  -0.00376  -0.00882   2.81391
    R5        2.05342  -0.00155  -0.00640   0.00284  -0.00356   2.04986
    R6        2.50680  -0.02222  -0.02583   0.00104  -0.02479   2.48202
    R7        2.05342  -0.00155  -0.00640   0.00284  -0.00356   2.04986
    R8        2.04661  -0.00161  -0.00604   0.00269  -0.00335   2.04326
    R9        2.04854  -0.00186  -0.00568   0.00175  -0.00392   2.04462
    A1        2.13561  -0.00153   0.00135  -0.00770  -0.00634   2.12926
    A2        2.13288  -0.00049  -0.00459   0.00117  -0.00342   2.12946
    A3        2.01470   0.00202   0.00324   0.00653   0.00977   2.02446
    A4        2.18024  -0.00427  -0.00482  -0.01179  -0.01662   2.16363
    A5        2.09361   0.00107   0.00110   0.00426   0.00536   2.09897
    A6        2.00933   0.00320   0.00372   0.00754   0.01126   2.02059
    A7        2.18024  -0.00427  -0.00482  -0.01179  -0.01662   2.16363
    A8        2.00933   0.00320   0.00372   0.00754   0.01126   2.02059
    A9        2.09361   0.00107   0.00110   0.00426   0.00536   2.09897
   A10        2.13561  -0.00153   0.00135  -0.00770  -0.00634   2.12926
   A11        2.13288  -0.00049  -0.00459   0.00117  -0.00342   2.12946
   A12        2.01470   0.00202   0.00324   0.00653   0.00977   2.02446
    D1        3.14159   0.00000   0.00000   0.00000   0.00000   3.14159
    D2        0.00000   0.00000   0.00000   0.00000   0.00000   0.00000
    D3        0.00000   0.00000   0.00000   0.00000   0.00000   0.00000
    D4        3.14159   0.00000   0.00000   0.00000   0.00000   3.14159
    D5        3.14159   0.00000   0.00000   0.00000   0.00000   3.14159
    D6        0.00000   0.00000   0.00000   0.00000   0.00000   0.00000
    D7        0.00000   0.00000   0.00000   0.00000   0.00000   0.00000
    D8        3.14159   0.00000   0.00000   0.00000   0.00000   3.14159
    D9        3.14159   0.00000   0.00000   0.00000   0.00000   3.14159
   D10        0.00000   0.00000   0.00000   0.00000   0.00000   0.00000
   D11        0.00000   0.00000   0.00000   0.00000   0.00000   0.00000
   D12        3.14159   0.00000   0.00000   0.00000   0.00000   3.14159
         Item               Value     Threshold  Converged?
 Maximum Force            0.022224     0.000450     NO 
 RMS     Force            0.005794     0.000300     NO 
 Maximum Displacement     0.056848     0.001800     NO 
 RMS     Displacement     0.021513     0.001200     NO 
 Predicted change in Energy=-6.997297D-04
 GradGradGradGradGradGradGradGradGradGradGradGradGradGradGradGradGradGrad

                          Input orientation:                          
 ---------------------------------------------------------------------
 Center     Atomic      Atomic             Coordinates (Angstroms)
 Number     Number       Type             X           Y           Z
 ---------------------------------------------------------------------
      1          6           0       -0.066495    0.000000   -0.057809
      2          6           0        0.018698    0.000000    1.252851
      3          6           0        1.305028    0.000000    2.002944
      4          6           0        1.390221    0.000000    3.313604
      5          1           0       -1.018697    0.000000   -0.570064
      6          1           0        0.811843    0.000000   -0.689610
      7          1           0       -0.880791    0.000000    1.859135
      8          1           0        2.204517    0.000000    1.396660
      9          1           0        2.342423    0.000000    3.825859
     10          1           0        0.511883    0.000000    3.945405
 ---------------------------------------------------------------------
                    Distance matrix (angstroms):
                    1          2          3          4          5
     1  C    0.000000
     2  C    1.313426   0.000000
     3  C    2.475435   1.489055   0.000000
     4  C    3.672662   2.475435   1.313426   0.000000
     5  H    1.081246   2.097429   3.466997   4.570095   0.000000
     6  H    1.081966   2.098150   2.737349   4.044780   1.834439
     7  H    2.082727   1.084739   2.190545   2.696846   2.433110
     8  H    2.696846   2.190545   1.084739   2.082727   3.775859
     9  H    4.570095   3.466997   2.097429   1.081246   5.533649
    10  H    4.044780   2.737349   2.098150   1.081966   4.767823
                    6          7          8          9         10
     6  H    0.000000
     7  H    3.059593   0.000000
     8  H    2.508399   3.119776   0.000000
     9  H    4.767823   3.775859   2.433110   0.000000
    10  H    4.644711   2.508399   3.059593   1.834439   0.000000
 Stoichiometry    C4H6
 Framework group  C2H[SGH(C4H6)]
 Deg. of freedom     9
 Full point group                 C2H     NOp   4
 Largest Abelian subgroup         C2H     NOp   4
 Largest concise Abelian subgroup C2      NOp   2
                         Standard orientation:                         
 ---------------------------------------------------------------------
 Center     Atomic      Atomic             Coordinates (Angstroms)
 Number     Number       Type             X           Y           Z
 ---------------------------------------------------------------------
      1          6           0        0.617484    1.729400    0.000000
      2          6           0        0.617484    0.415974    0.000000
      3          6           0       -0.617484   -0.415974    0.000000
      4          6           0       -0.617484   -1.729400    0.000000
      5          1           0        1.534454    2.302340    0.000000
      6          1           0       -0.299985    2.302899    0.000000
      7          1           0        1.554404   -0.130689    0.000000
      8          1           0       -1.554404    0.130689    0.000000
      9          1           0       -1.534454   -2.302340    0.000000
     10          1           0        0.299985   -2.302899    0.000000
 ---------------------------------------------------------------------
 Rotational constants (GHZ):     42.2334736      4.4536912      4.0288342
 Standard basis: STO-3G (5D, 7F)
 There are    11 symmetry adapted basis functions of AG  symmetry.
 There are     2 symmetry adapted basis functions of BG  symmetry.
 There are     2 symmetry adapted basis functions of AU  symmetry.
 There are    11 symmetry adapted basis functions of BU  symmetry.
 Integral buffers will be    131072 words long.
 Raffenetti 1 integral format.
 Two-electron integral symmetry is turned on.
    26 basis functions,    78 primitive gaussians,    26 cartesian basis functions
    15 alpha electrons       15 beta electrons
       nuclear repulsion energy       104.1056460742 Hartrees.
 NAtoms=   10 NActive=   10 NUniq=    5 SFac= 4.00D+00 NAtFMM=   60 NAOKFM=F Big=F
 One-electron integrals computed using PRISM.
 NBasis=    26 RedAO= T  NBF=    11     2     2    11
 NBsUse=    26 1.00D-06 NBFU=    11     2     2    11
 Initial guess read from the read-write file.
 B after Tr=     0.000000    0.000000    0.000000
         Rot=    1.000000    0.000000    0.000000    0.000000 Ang=   0.00 deg.
 Initial guess orbital symmetries:
       Occupied  (BU) (AG) (BU) (AG) (AG) (BU) (AG) (BU) (BU) (AG)
                 (AG) (BU) (AG) (AU) (BG)
       Virtual   (AU) (BG) (BU) (AG) (BU) (BU) (AG) (AG) (BU) (BU)
                 (AG)
 Harris functional with IExCor=  205 diagonalized for initial guess.
 ExpMin= 1.69D-01 ExpMax= 7.16D+01 ExpMxC= 7.16D+01 IAcc=1 IRadAn=         1 AccDes= 0.00D+00
 HarFok:  IExCor=  205 AccDes= 0.00D+00 IRadAn=         1 IDoV= 1
 ScaDFX=  1.000000  1.000000  1.000000  1.000000
 FoFCou: FMM=F IPFlag=           0 FMFlag=      100000 FMFlg1=           0
         NFxFlg=           0 DoJE=T BraDBF=F KetDBF=T FulRan=T
         Omega=  0.000000  0.000000  1.000000  0.000000  0.000000 ICntrl=     500 IOpCl=  0
         NMat0=    1 NMatS0=    1 NMatT0=    0 NMatD0=    1 NMtDS0=    0 NMtDT0=    0
         I1Cent=           4 NGrid=           0.
 Petite list used in FoFCou.
 Requested convergence on RMS density matrix=1.00D-08 within 128 cycles.
 Requested convergence on MAX density matrix=1.00D-06.
 Requested convergence on             energy=1.00D-06.
 No special actions if energy rises.
 Keep R1 ints in memory in canonical form, NReq=882404.
 SCF Done:  E(RHF) =  -153.020364428     A.U. after    8 cycles
             Convg  =    0.5179D-08             -V/T =  2.0068
 Calling FoFJK, ICntrl=      2127 FMM=F ISym2X=1 I1Cent= 0 IOpClX= 0 NMat=1 NMatS=1 NMatT=0.
 ***** Axes restored to original set *****
 -------------------------------------------------------------------
 Center     Atomic                   Forces (Hartrees/Bohr)
 Number     Number              X              Y              Z
 -------------------------------------------------------------------
      1        6          -0.000085213    0.000000000   -0.000079334
      2        6          -0.000042244    0.000000000   -0.000316971
      3        6           0.000042244    0.000000000    0.000316971
      4        6           0.000085213    0.000000000    0.000079334
      5        1           0.000055557    0.000000000   -0.000105137
      6        1          -0.000223321    0.000000000    0.000139879
      7        1           0.000318926    0.000000000   -0.000109780
      8        1          -0.000318926    0.000000000    0.000109780
      9        1          -0.000055557    0.000000000    0.000105137
     10        1           0.000223321    0.000000000   -0.000139879
 -------------------------------------------------------------------
 Cartesian Forces:  Max     0.000318926 RMS     0.000144489

 GradGradGradGradGradGradGradGradGradGradGradGradGradGradGradGradGradGrad
 Berny optimization.
 Using GEDIIS/GDIIS optimizer.
 Internal  Forces:  Max     0.000333518 RMS     0.000159537
 Search for a local minimum.
 Step number   5 out of a maximum of   43
 All quantities printed in internal units (Hartrees-Bohrs-Radians)
 Mixed Optimization -- En-DIIS/RFO-DIIS
 Update second derivatives using D2CorX and points    2    3    4    5
 DE= -7.34D-04 DEPred=-7.00D-04 R= 1.05D+00
 SS=  1.41D+00  RLast= 5.04D-02 DXNew= 1.4270D+00 1.5129D-01
 Trust test= 1.05D+00 RLast= 5.04D-02 DXMaxT set to 8.49D-01
 ITU=  1  0  1  1  0
 Use linear search instead of GDIIS.
     Eigenvalues ---    0.02089   0.02089   0.02089   0.02089   0.02089
     Eigenvalues ---    0.02089   0.02089   0.15661   0.16000   0.16000
     Eigenvalues ---    0.16000   0.16139   0.16274   0.22000   0.24556
     Eigenvalues ---    0.45133   0.45621   0.47293   0.47684   0.47688
     Eigenvalues ---    0.47688   0.47688   0.49803   0.87466
 RFO step:  Lambda=-2.42097013D-06 EMin= 2.08875573D-02
 Quartic linear search produced a step of -0.01398.
 Iteration  1 RMS(Cart)=  0.00081082 RMS(Int)=  0.00000019
 Iteration  2 RMS(Cart)=  0.00000031 RMS(Int)=  0.00000000
 ClnCor:  largest displacement from symmetrization is 4.65D-13 for atom    10.
 Variable       Old X    -DE/DX   Delta X   Delta X   Delta X     New X
                                 (Linear)    (Quad)   (Total)
    R1        2.48202   0.00006   0.00035  -0.00039  -0.00004   2.48197
    R2        2.04326   0.00000   0.00005  -0.00012  -0.00007   2.04319
    R3        2.04462  -0.00026   0.00005  -0.00066  -0.00061   2.04401
    R4        2.81391   0.00022   0.00012   0.00022   0.00034   2.81425
    R5        2.04986  -0.00033   0.00005  -0.00078  -0.00073   2.04913
    R6        2.48202   0.00006   0.00035  -0.00039  -0.00004   2.48197
    R7        2.04986  -0.00033   0.00005  -0.00078  -0.00073   2.04913
    R8        2.04326   0.00000   0.00005  -0.00012  -0.00007   2.04319
    R9        2.04462  -0.00026   0.00005  -0.00066  -0.00061   2.04401
    A1        2.12926   0.00015   0.00009   0.00075   0.00084   2.13010
    A2        2.12946  -0.00006   0.00005  -0.00040  -0.00035   2.12910
    A3        2.02446  -0.00009  -0.00014  -0.00035  -0.00049   2.02398
    A4        2.16363   0.00033   0.00023   0.00106   0.00129   2.16492
    A5        2.09897  -0.00008  -0.00007  -0.00004  -0.00011   2.09886
    A6        2.02059  -0.00026  -0.00016  -0.00102  -0.00118   2.01941
    A7        2.16363   0.00033   0.00023   0.00106   0.00129   2.16492
    A8        2.02059  -0.00026  -0.00016  -0.00102  -0.00118   2.01941
    A9        2.09897  -0.00008  -0.00007  -0.00004  -0.00011   2.09886
   A10        2.12926   0.00015   0.00009   0.00075   0.00084   2.13010
   A11        2.12946  -0.00006   0.00005  -0.00040  -0.00035   2.12910
   A12        2.02446  -0.00009  -0.00014  -0.00035  -0.00049   2.02398
    D1        3.14159   0.00000   0.00000   0.00000   0.00000   3.14159
    D2        0.00000   0.00000   0.00000   0.00000   0.00000   0.00000
    D3        0.00000   0.00000   0.00000   0.00000   0.00000   0.00000
    D4        3.14159   0.00000   0.00000   0.00000   0.00000   3.14159
    D5        3.14159   0.00000   0.00000   0.00000   0.00000   3.14159
    D6        0.00000   0.00000   0.00000   0.00000   0.00000   0.00000
    D7        0.00000   0.00000   0.00000   0.00000   0.00000   0.00000
    D8        3.14159   0.00000   0.00000   0.00000   0.00000   3.14159
    D9        3.14159   0.00000   0.00000   0.00000   0.00000   3.14159
   D10        0.00000   0.00000   0.00000   0.00000   0.00000   0.00000
   D11        0.00000   0.00000   0.00000   0.00000   0.00000   0.00000
   D12        3.14159   0.00000   0.00000   0.00000   0.00000   3.14159
         Item               Value     Threshold  Converged?
 Maximum Force            0.000334     0.000450     YES
 RMS     Force            0.000160     0.000300     YES
 Maximum Displacement     0.001588     0.001800     YES
 RMS     Displacement     0.000811     0.001200     YES
 Predicted change in Energy=-1.376479D-06
 Optimization completed.
    -- Stationary point found.
                           ----------------------------
                           !   Optimized Parameters   !
                           ! (Angstroms and Degrees)  !
 --------------------------                            --------------------------
 ! Name  Definition              Value          Derivative Info.                !
 --------------------------------------------------------------------------------
 ! R1    R(1,2)                  1.3134         -DE/DX =    0.0001              !
 ! R2    R(1,5)                  1.0812         -DE/DX =    0.0                 !
 ! R3    R(1,6)                  1.082          -DE/DX =   -0.0003              !
 ! R4    R(2,3)                  1.4891         -DE/DX =    0.0002              !
 ! R5    R(2,7)                  1.0847         -DE/DX =   -0.0003              !
 ! R6    R(3,4)                  1.3134         -DE/DX =    0.0001              !
 ! R7    R(3,8)                  1.0847         -DE/DX =   -0.0003              !
 ! R8    R(4,9)                  1.0812         -DE/DX =    0.0                 !
 ! R9    R(4,10)                 1.082          -DE/DX =   -0.0003              !
 ! A1    A(2,1,5)              121.9979         -DE/DX =    0.0002              !
 ! A2    A(2,1,6)              122.009          -DE/DX =   -0.0001              !
 ! A3    A(5,1,6)              115.9931         -DE/DX =   -0.0001              !
 ! A4    A(1,2,3)              123.9666         -DE/DX =    0.0003              !
 ! A5    A(1,2,7)              120.2622         -DE/DX =   -0.0001              !
 ! A6    A(3,2,7)              115.7712         -DE/DX =   -0.0003              !
 ! A7    A(2,3,4)              123.9666         -DE/DX =    0.0003              !
 ! A8    A(2,3,8)              115.7712         -DE/DX =   -0.0003              !
 ! A9    A(4,3,8)              120.2622         -DE/DX =   -0.0001              !
 ! A10   A(3,4,9)              121.9979         -DE/DX =    0.0002              !
 ! A11   A(3,4,10)             122.009          -DE/DX =   -0.0001              !
 ! A12   A(9,4,10)             115.9931         -DE/DX =   -0.0001              !
 ! D1    D(5,1,2,3)            180.0            -DE/DX =    0.0                 !
 ! D2    D(5,1,2,7)              0.0            -DE/DX =    0.0                 !
 ! D3    D(6,1,2,3)              0.0            -DE/DX =    0.0                 !
 ! D4    D(6,1,2,7)            180.0            -DE/DX =    0.0                 !
 ! D5    D(1,2,3,4)            180.0            -DE/DX =    0.0                 !
 ! D6    D(1,2,3,8)              0.0            -DE/DX =    0.0                 !
 ! D7    D(7,2,3,4)              0.0            -DE/DX =    0.0                 !
 ! D8    D(7,2,3,8)            180.0            -DE/DX =    0.0                 !
 ! D9    D(2,3,4,9)            180.0            -DE/DX =    0.0                 !
 ! D10   D(2,3,4,10)             0.0            -DE/DX =    0.0                 !
 ! D11   D(8,3,4,9)              0.0            -DE/DX =    0.0                 !
 ! D12   D(8,3,4,10)           180.0            -DE/DX =    0.0                 !
 --------------------------------------------------------------------------------
 GradGradGradGradGradGradGradGradGradGradGradGradGradGradGradGradGradGrad

                          Input orientation:                          
 ---------------------------------------------------------------------
 Center     Atomic      Atomic             Coordinates (Angstroms)
 Number     Number       Type             X           Y           Z
 ---------------------------------------------------------------------
      1          6           0       -0.066495    0.000000   -0.057809
      2          6           0        0.018698    0.000000    1.252851
      3          6           0        1.305028    0.000000    2.002944
      4          6           0        1.390221    0.000000    3.313604
      5          1           0       -1.018697    0.000000   -0.570064
      6          1           0        0.811843    0.000000   -0.689610
      7          1           0       -0.880791    0.000000    1.859135
      8          1           0        2.204517    0.000000    1.396660
      9          1           0        2.342423    0.000000    3.825859
     10          1           0        0.511883    0.000000    3.945405
 ---------------------------------------------------------------------
                    Distance matrix (angstroms):
                    1          2          3          4          5
     1  C    0.000000
     2  C    1.313426   0.000000
     3  C    2.475435   1.489055   0.000000
     4  C    3.672662   2.475435   1.313426   0.000000
     5  H    1.081246   2.097429   3.466997   4.570095   0.000000
     6  H    1.081966   2.098150   2.737349   4.044780   1.834439
     7  H    2.082727   1.084739   2.190545   2.696846   2.433110
     8  H    2.696846   2.190545   1.084739   2.082727   3.775859
     9  H    4.570095   3.466997   2.097429   1.081246   5.533649
    10  H    4.044780   2.737349   2.098150   1.081966   4.767823
                    6          7          8          9         10
     6  H    0.000000
     7  H    3.059593   0.000000
     8  H    2.508399   3.119776   0.000000
     9  H    4.767823   3.775859   2.433110   0.000000
    10  H    4.644711   2.508399   3.059593   1.834439   0.000000
 Stoichiometry    C4H6
 Framework group  C2H[SGH(C4H6)]
 Deg. of freedom     9
 Full point group                 C2H     NOp   4
 Largest Abelian subgroup         C2H     NOp   4
 Largest concise Abelian subgroup C2      NOp   2
                         Standard orientation:                         
 ---------------------------------------------------------------------
 Center     Atomic      Atomic             Coordinates (Angstroms)
 Number     Number       Type             X           Y           Z
 ---------------------------------------------------------------------
      1          6           0        0.617484    1.729400    0.000000
      2          6           0        0.617484    0.415974    0.000000
      3          6           0       -0.617484   -0.415974    0.000000
      4          6           0       -0.617484   -1.729400    0.000000
      5          1           0        1.534454    2.302340    0.000000
      6          1           0       -0.299985    2.302899    0.000000
      7          1           0        1.554404   -0.130689    0.000000
      8          1           0       -1.554404    0.130689    0.000000
      9          1           0       -1.534454   -2.302340    0.000000
     10          1           0        0.299985   -2.302899    0.000000
 ---------------------------------------------------------------------
 Rotational constants (GHZ):     42.2334736      4.4536912      4.0288342

 **********************************************************************

            Population analysis using the SCF density.

 **********************************************************************

 Orbital symmetries:
       Occupied  (BU) (AG) (BU) (AG) (AG) (BU) (AG) (BU) (BU) (AG)
                 (AG) (BU) (AG) (AU) (BG)
       Virtual   (AU) (BG) (BU) (AG) (BU) (BU) (AG) (AG) (BU) (BU)
                 (AG)
 The electronic state is 1-AG.
 Alpha  occ. eigenvalues --  -11.03209 -11.03187 -11.01792 -11.01791  -1.03528
 Alpha  occ. eigenvalues --   -0.95241  -0.76856  -0.70912  -0.59645  -0.59153
 Alpha  occ. eigenvalues --   -0.50440  -0.49783  -0.43255  -0.39906  -0.27613
 Alpha virt. eigenvalues --    0.25605   0.42029   0.57848   0.66961   0.68126
 Alpha virt. eigenvalues --    0.69606   0.70825   0.88548   0.93657   1.01894
 Alpha virt. eigenvalues --    1.10663
          Condensed to atoms (all electrons):
              1          2          3          4          5          6
     1  C    4.799382   0.603872  -0.028466   0.000725   0.393985   0.392271
     2  C    0.603872   4.764918   0.404573  -0.028466  -0.025322  -0.026006
     3  C   -0.028466   0.404573   4.764918   0.603872   0.001448  -0.004525
     4  C    0.000725  -0.028466   0.603872   4.799382  -0.000020   0.000034
     5  H    0.393985  -0.025322   0.001448  -0.000020   0.595453  -0.024258
     6  H    0.392271  -0.026006  -0.004525   0.000034  -0.024258   0.597809
     7  H   -0.028244   0.391689  -0.025217  -0.002994  -0.005080   0.002114
     8  H   -0.002994  -0.025217   0.391689  -0.028244  -0.000003   0.000703
     9  H   -0.000020   0.001448  -0.025322   0.393985   0.000000  -0.000002
    10  H    0.000034  -0.004525  -0.026006   0.392271  -0.000002   0.000001
              7          8          9         10
     1  C   -0.028244  -0.002994  -0.000020   0.000034
     2  C    0.391689  -0.025217   0.001448  -0.004525
     3  C   -0.025217   0.391689  -0.025322  -0.026006
     4  C   -0.002994  -0.028244   0.393985   0.392271
     5  H   -0.005080  -0.000003   0.000000  -0.000002
     6  H    0.002114   0.000703  -0.000002   0.000001
     7  H    0.603701   0.001479  -0.000003   0.000703
     8  H    0.001479   0.603701  -0.005080   0.002114
     9  H   -0.000003  -0.005080   0.595453  -0.024258
    10  H    0.000703   0.002114  -0.024258   0.597809
 Mulliken atomic charges:
              1
     1  C   -0.130544
     2  C   -0.056965
     3  C   -0.056965
     4  C   -0.130544
     5  H    0.063799
     6  H    0.061858
     7  H    0.061852
     8  H    0.061852
     9  H    0.063799
    10  H    0.061858
 Sum of Mulliken atomic charges =   0.00000
 Mulliken charges with hydrogens summed into heavy atoms:
              1
     1  C   -0.004887
     2  C    0.004887
     3  C    0.004887
     4  C   -0.004887
 Sum of Mulliken charges with hydrogens summed into heavy atoms =   0.00000
 Electronic spatial extent (au):  <R**2>=            330.7830
 Charge=              0.0000 electrons
 Dipole moment (field-independent basis, Debye):
    X=              0.0000    Y=              0.0000    Z=              0.0000  Tot=              0.0000
 Quadrupole moment (field-independent basis, Debye-Ang):
   XX=            -22.2415   YY=            -22.4882   ZZ=            -25.1458
   XY=             -0.1648   XZ=              0.0000   YZ=              0.0000
 Traceless Quadrupole moment (field-independent basis, Debye-Ang):
   XX=              1.0503   YY=              0.8036   ZZ=             -1.8540
   XY=             -0.1648   XZ=              0.0000   YZ=              0.0000
 Octapole moment (field-independent basis, Debye-Ang**2):
[...]
     5   1    -0.09  -0.05   0.00    -0.44  -0.27   0.00     0.43   0.27   0.00
     6   1     0.14  -0.08   0.00    -0.41   0.25   0.00     0.41  -0.25   0.00
     7   1    -0.59   0.34   0.00    -0.03   0.02   0.00     0.03  -0.02   0.00
     8   1    -0.59   0.34   0.00    -0.03   0.02   0.00    -0.03   0.02   0.00
     9   1    -0.09  -0.05   0.00    -0.44  -0.27   0.00    -0.43  -0.27   0.00
    10   1     0.14  -0.08   0.00    -0.41   0.25   0.00    -0.41   0.25   0.00

 -------------------
 - Thermochemistry -
 -------------------
 Temperature   298.150 Kelvin.  Pressure   1.00000 Atm.
 Atom     1 has atomic number  6 and mass  12.00000
 Atom     2 has atomic number  6 and mass  12.00000
 Atom     3 has atomic number  6 and mass  12.00000
 Atom     4 has atomic number  6 and mass  12.00000
 Atom     5 has atomic number  1 and mass   1.00783
 Atom     6 has atomic number  1 and mass   1.00783
 Atom     7 has atomic number  1 and mass   1.00783
 Atom     8 has atomic number  1 and mass   1.00783
 Atom     9 has atomic number  1 and mass   1.00783
 Atom    10 has atomic number  1 and mass   1.00783
 Molecular mass:    54.04695 amu.
 Principal axes and moments of inertia in atomic units:
                           1         2         3
     Eigenvalues --    42.73248 405.22370 447.95618
           X            0.39866   0.91710   0.00000
           Y            0.91710  -0.39866   0.00000
           Z            0.00000   0.00000   1.00000
 This molecule is an asymmetric top.
 Rotational symmetry number  2.
 Rotational temperatures (Kelvin)      2.02688     0.21374     0.19335
 Rotational constants (GHZ):          42.23347     4.45369     4.02883
 Zero-point vibrational energy     262158.1 (Joules/Mol)
                                   62.65728 (Kcal/Mol)
 Warning -- explicit consideration of   4 degrees of freedom as
           vibrations may cause significant error
 Vibrational temperatures:    220.48   479.19   817.50   878.95  1311.88
          (Kelvin)           1464.53  1650.47  1657.54  1663.56  1764.74
                             1819.91  2007.69  2195.46  2214.45  2408.61
                             2498.35  2877.22  2979.24  5249.60  5256.16
                             5337.46  5342.06  5482.78  5482.86
 
 Zero-point correction=                           0.099851 (Hartree/Particle)
 Thermal correction to Energy=                    0.104230
 Thermal correction to Enthalpy=                  0.105174
 Thermal correction to Gibbs Free Energy=         0.074111
 Sum of electronic and zero-point Energies=           -152.920514
 Sum of electronic and thermal Energies=              -152.916134
 Sum of electronic and thermal Enthalpies=            -152.915190
 Sum of electronic and thermal Free Energies=         -152.946254
 
                     E (Thermal)             CV                S
                      KCal/Mol        Cal/Mol-Kelvin    Cal/Mol-Kelvin
 Total                   65.405             13.826             65.379
 Electronic               0.000              0.000              0.000
 Translational            0.889              2.981             37.884
 Rotational               0.889              2.981             22.188
 Vibrational             63.628              7.864              5.307
 Vibration     1          0.619              1.899              2.632
 Vibration     2          0.715              1.609              1.245
 Vibration     3          0.924              1.100              0.508
 Vibration     4          0.970              1.009              0.431
                       Q            Log10(Q)             Ln(Q)
 Total Bot       0.815781D-34        -34.088426        -78.491502
 Total V=0       0.691236D+12         11.839626         27.261747
 Vib (Bot)       0.331361D-45        -45.479699       -104.720877
 Vib (Bot)    1  0.132196D+01          0.121219          0.279117
 Vib (Bot)    2  0.559949D+00         -0.251851         -0.579909
 Vib (Bot)    3  0.271353D+00         -0.566465         -1.304335
 Vib (Bot)    4  0.241680D+00         -0.616759         -1.420141
 Vib (V=0)       0.280772D+01          0.448354          1.032372
 Vib (V=0)    1  0.191336D+01          0.281796          0.648860
 Vib (V=0)    2  0.125070D+01          0.097152          0.223700
 Vib (V=0)    3  0.106889D+01          0.028932          0.066618
 Vib (V=0)    4  0.105535D+01          0.023395          0.053869
 Electronic      0.100000D+01          0.000000          0.000000
 Translational   0.156175D+08          7.193612         16.563904
 Rotational      0.157638D+05          4.197661          9.665471
 ***** Axes restored to original set *****
 -------------------------------------------------------------------
 Center     Atomic                   Forces (Hartrees/Bohr)
 Number     Number              X              Y              Z
 -------------------------------------------------------------------
      1        6          -0.000085213    0.000000000   -0.000079336
      2        6          -0.000042244    0.000000000   -0.000316972
      3        6           0.000042244    0.000000000    0.000316972
      4        6           0.000085213    0.000000000    0.000079336
      5        1           0.000055558    0.000000000   -0.000105136
      6        1          -0.000223321    0.000000000    0.000139880
      7        1           0.000318925    0.000000000   -0.000109779
      8        1          -0.000318925    0.000000000    0.000109779
      9        1          -0.000055558    0.000000000    0.000105136
     10        1           0.000223321    0.000000000   -0.000139880
 -------------------------------------------------------------------
 Cartesian Forces:  Max     0.000318925 RMS     0.000144489

 GradGradGradGradGradGradGradGradGradGradGradGradGradGradGradGradGradGrad
 Berny optimization.
 Internal  Forces:  Max     0.000333518 RMS     0.000159537
 Search for a local minimum.
 Step number   1 out of a maximum of    2
 All quantities printed in internal units (Hartrees-Bohrs-Radians)
 Second derivative matrix not updated -- analytic derivatives used.
 ITU=  0
     Eigenvalues ---    0.00540   0.03007   0.03362   0.04248   0.04752
     Eigenvalues ---    0.05693   0.05906   0.14096   0.14495   0.14664
     Eigenvalues ---    0.14678   0.15148   0.18038   0.19730   0.23761
     Eigenvalues ---    0.43259   0.48110   0.48285   0.48435   0.48542
     Eigenvalues ---    0.49679   0.49709   0.88557   0.89881
 Angle between quadratic step and forces=  22.84 degrees.
 Linear search not attempted -- first point.
 Iteration  1 RMS(Cart)=  0.00079500 RMS(Int)=  0.00000018
 Iteration  2 RMS(Cart)=  0.00000029 RMS(Int)=  0.00000000
 ClnCor:  largest displacement from symmetrization is 9.72D-13 for atom    10.
 Variable       Old X    -DE/DX   Delta X   Delta X   Delta X     New X
                                 (Linear)    (Quad)   (Total)
    R1        2.48202   0.00006   0.00000  -0.00005  -0.00005   2.48197
    R2        2.04326   0.00000   0.00000  -0.00002  -0.00002   2.04324
    R3        2.04462  -0.00026   0.00000  -0.00049  -0.00049   2.04413
    R4        2.81391   0.00022   0.00000   0.00040   0.00040   2.81431
    R5        2.04986  -0.00033   0.00000  -0.00060  -0.00060   2.04926
    R6        2.48202   0.00006   0.00000  -0.00005  -0.00005   2.48197
    R7        2.04986  -0.00033   0.00000  -0.00060  -0.00060   2.04926
    R8        2.04326   0.00000   0.00000  -0.00002  -0.00002   2.04324
    R9        2.04462  -0.00026   0.00000  -0.00049  -0.00049   2.04413
    A1        2.12926   0.00015   0.00000   0.00073   0.00073   2.13000
    A2        2.12946  -0.00006   0.00000  -0.00019  -0.00019   2.12927
    A3        2.02446  -0.00009   0.00000  -0.00055  -0.00055   2.02391
    A4        2.16363   0.00033   0.00000   0.00123   0.00123   2.16486
    A5        2.09897  -0.00008   0.00000  -0.00011  -0.00011   2.09886
    A6        2.02059  -0.00026   0.00000  -0.00112  -0.00112   2.01947
    A7        2.16363   0.00033   0.00000   0.00123   0.00123   2.16486
    A8        2.02059  -0.00026   0.00000  -0.00112  -0.00112   2.01947
    A9        2.09897  -0.00008   0.00000  -0.00011  -0.00011   2.09886
   A10        2.12926   0.00015   0.00000   0.00073   0.00073   2.13000
   A11        2.12946  -0.00006   0.00000  -0.00019  -0.00019   2.12927
   A12        2.02446  -0.00009   0.00000  -0.00055  -0.00055   2.02391
    D1        3.14159   0.00000   0.00000   0.00000   0.00000   3.14159
    D2        0.00000   0.00000   0.00000   0.00000   0.00000   0.00000
    D3        0.00000   0.00000   0.00000   0.00000   0.00000   0.00000
    D4        3.14159   0.00000   0.00000   0.00000   0.00000   3.14159
    D5        3.14159   0.00000   0.00000   0.00000   0.00000   3.14159
    D6        0.00000   0.00000   0.00000   0.00000   0.00000   0.00000
    D7        0.00000   0.00000   0.00000   0.00000   0.00000   0.00000
    D8        3.14159   0.00000   0.00000   0.00000   0.00000   3.14159
    D9        3.14159   0.00000   0.00000   0.00000   0.00000   3.14159
   D10        0.00000   0.00000   0.00000   0.00000   0.00000   0.00000
   D11        0.00000   0.00000   0.00000   0.00000   0.00000   0.00000
   D12        3.14159   0.00000   0.00000   0.00000   0.00000   3.14159
         Item               Value     Threshold  Converged?
 Maximum Force            0.000334     0.000450     YES
 RMS     Force            0.000160     0.000300     YES
 Maximum Displacement     0.001506     0.001800     YES
 RMS     Displacement     0.000795     0.001200     YES
 Predicted change in Energy=-1.244883D-06
 Optimization completed.
    -- Stationary point found.
                           ----------------------------
                           !   Optimized Parameters   !
                           ! (Angstroms and Degrees)  !
 --------------------------                            --------------------------
 ! Name  Definition              Value          Derivative Info.                !
 --------------------------------------------------------------------------------
 ! R1    R(1,2)                  1.3134         -DE/DX =    0.0001              !
 ! R2    R(1,5)                  1.0812         -DE/DX =    0.0                 !
 ! R3    R(1,6)                  1.082          -DE/DX =   -0.0003              !
 ! R4    R(2,3)                  1.4891         -DE/DX =    0.0002              !
 ! R5    R(2,7)                  1.0847         -DE/DX =   -0.0003              !
 ! R6    R(3,4)                  1.3134         -DE/DX =    0.0001              !
 ! R7    R(3,8)                  1.0847         -DE/DX =   -0.0003              !
 ! R8    R(4,9)                  1.0812         -DE/DX =    0.0                 !
 ! R9    R(4,10)                 1.082          -DE/DX =   -0.0003              !
 ! A1    A(2,1,5)              121.9979         -DE/DX =    0.0002              !
 ! A2    A(2,1,6)              122.009          -DE/DX =   -0.0001              !
 ! A3    A(5,1,6)              115.9931         -DE/DX =   -0.0001              !
 ! A4    A(1,2,3)              123.9666         -DE/DX =    0.0003              !
 ! A5    A(1,2,7)              120.2622         -DE/DX =   -0.0001              !
 ! A6    A(3,2,7)              115.7712         -DE/DX =   -0.0003              !
 ! A7    A(2,3,4)              123.9666         -DE/DX =    0.0003              !
 ! A8    A(2,3,8)              115.7712         -DE/DX =   -0.0003              !
 ! A9    A(4,3,8)              120.2622         -DE/DX =   -0.0001              !
 ! A10   A(3,4,9)              121.9979         -DE/DX =    0.0002              !
 ! A11   A(3,4,10)             122.009          -DE/DX =   -0.0001              !
 ! A12   A(9,4,10)             115.9931         -DE/DX =   -0.0001              !
 ! D1    D(5,1,2,3)            180.0            -DE/DX =    0.0                 !
 ! D2    D(5,1,2,7)              0.0            -DE/DX =    0.0                 !
 ! D3    D(6,1,2,3)              0.0            -DE/DX =    0.0                 !
 ! D4    D(6,1,2,7)            180.0            -DE/DX =    0.0                 !
 ! D5    D(1,2,3,4)            180.0            -DE/DX =    0.0                 !
 ! D6    D(1,2,3,8)              0.0            -DE/DX =    0.0                 !
 ! D7    D(7,2,3,4)              0.0            -DE/DX =    0.0                 !
 ! D8    D(7,2,3,8)            180.0            -DE/DX =    0.0                 !
 ! D9    D(2,3,4,9)            180.0            -DE/DX =    0.0                 !
 ! D10   D(2,3,4,10)             0.0            -DE/DX =    0.0                 !
 ! D11   D(8,3,4,9)              0.0            -DE/DX =    0.0                 !
 ! D12   D(8,3,4,10)           180.0            -DE/DX =    0.0                 !
 --------------------------------------------------------------------------------
 GradGradGradGradGradGradGradGradGradGradGradGradGradGradGradGradGradGrad

 1\1\GINC-NODE47\Freq\RHF\STO-3G\C4H6\CN410107\22-Sep-2018\0\\#N Geom=A
 llCheck Guess=TCheck SCRF=Check GenChk RHF/STO-3G Freq\\trans_butadien
 e\\0,1\C,-0.066495292,0.,-0.0578088541\C,0.0186978308,0.,1.2528512663\
 C,1.305028175,0.,2.0029441499\C,1.3902212978,0.,3.3136042703\H,-1.0186
 968871,0.,-0.5700638417\H,0.8118428305,0.,-0.6896096399\H,-0.880790742
 7,0.,1.8591350522\H,2.2045167485,0.,1.396660364\H,2.3424228929,0.,3.82
 5859258\H,0.5118831753,0.,3.9454050562\\Version=EM64L-G09RevC.01\State
 =1-AG\HF=-153.0203644\RMSD=5.669e-10\RMSF=1.445e-04\ZeroPoint=0.099850
 7\Thermal=0.1042301\Dipole=0.,0.,0.\DipoleDeriv=-0.0658664,0.,-0.14078
 26,0.,-0.189802,0.,-0.0249462,0.,-0.1349898,0.0910068,0.,0.2274679,0.,
 -0.0507632,0.,-0.0041301,0.,-0.073271,0.0910068,0.,0.2274679,0.,-0.050
 7632,0.,-0.0041301,0.,-0.073271,-0.0658664,0.,-0.1407826,0.,-0.189802,
 0.,-0.0249462,0.,-0.1349898,0.0340644,0.,0.1136029,0.,0.0845692,0.,0.0
 002471,0.,0.0651854,-0.0277861,0.,-0.0959109,0.,0.0873334,0.,0.0195127
 ,0.,0.1074239,-0.0314187,0.,-0.1043773,0.,0.0686627,0.,0.0093166,0.,0.
 0356515,-0.0314187,0.,-0.1043773,0.,0.0686627,0.,0.0093166,0.,0.035651
 5,0.0340644,0.,0.1136029,0.,0.0845692,0.,0.0002471,0.,0.0651854,-0.027
 7861,0.,-0.0959109,0.,0.0873334,0.,0.0195127,0.,0.1074239\Polar=22.373
 9596,0.,4.633092,6.6216323,0.,48.4333503\PolarDeriv=-0.0665663,0.,0.03
 15103,1.0665458,0.,-1.138327,0.,-1.5644919,0.,0.,-7.5501162,0.,-0.9317
 692,0.,-0.6410471,-5.246263,0.,-16.3917265,3.2324809,0.,-0.3868194,4.1
 295457,0.,12.5483794,0.,1.484315,0.,0.,7.0193083,0.,2.4422205,0.,0.636
 8608,8.7160373,0.,22.878028,-3.2324809,0.,0.3868194,-4.1295457,0.,-12.
 5483794,0.,-1.484315,0.,0.,-7.0193083,0.,-2.4422205,0.,-0.6368608,-8.7
 160373,0.,-22.878028,0.0665663,0.,-0.0315103,-1.0665458,0.,1.138327,0.
 ,1.5644919,0.,0.,7.5501162,0.,0.9317692,0.,0.6410471,5.246263,0.,16.39
 17265,-5.0398997,0.,-0.1956294,-3.7177803,0.,-1.8784594,0.,-1.2502117,
 0.,0.,-0.399992,0.,-0.8372928,0.,0.052561,-2.53208,0.,-4.8545817,2.656
 2558,0.,0.202043,-2.9526977,0.,1.6305748,0.,1.1832235,0.,0.,-0.2742594
 ,0.,-0.3408901,0.,-0.0026574,1.7029741,0.,-5.4238741,-4.5878342,0.,-0.
 1842936,1.8903029,0.,-0.2254078,0.,-1.4459922,0.,0.,-0.0883645,0.,0.78
 26163,0.,-0.0275611,-1.6101091,0.,2.3045844,4.5878342,0.,0.1842936,-1.
 8903029,0.,0.2254078,0.,1.4459922,0.,0.,0.0883645,0.,-0.7826163,0.,0.0
 275611,1.6101091,0.,-2.3045844,5.0398997,0.,0.1956294,3.7177803,0.,1.8
 784594,0.,1.2502117,0.,0.,0.399992,0.,0.8372928,0.,-0.052561,2.53208,0
 .,4.8545817,-2.6562558,0.,-0.202043,2.9526977,0.,-1.6305748,0.,-1.1832
 235,0.,0.,0.2742594,0.,0.3408901,0.,0.0026574,-1.7029741,0.,5.4238741\
 HyperPolar=0.,0.,0.,0.,0.,0.,0.,0.,0.,0.\PG=C02H [SGH(C4H6)]\NImag=0\\
 0.90406273,0.,0.15663119,0.02683774,0.,1.23211370,-0.17043976,0.,-0.02
 165129,0.82221035,0.,-0.07206838,0.,0.,0.17842479,-0.03703557,0.,-0.81
 216039,-0.04406316,0.,1.22304992,0.00314849,0.,-0.01693087,-0.30736026
 ,0.,-0.07142782,0.82221035,0.,0.00930935,0.,0.,-0.08457337,0.,0.,0.178
 42479,-0.04827402,0.,-0.03820704,-0.07142782,0.,-0.15959210,-0.0440631
 6,0.,1.22304992,-0.00785707,0.,0.00019210,0.00314849,0.,-0.04827402,-0
 .17043976,0.,-0.03703557,0.90406273,0.,0.00031867,0.,0.,0.00930935,0.,
 0.,-0.07206838,0.,0.,0.15663119,0.00019210,0.,0.00930683,-0.01693087,0
 .,-0.03820704,-0.02165129,0.,-0.81216039,0.02683774,0.,1.23211370,-0.3
 9530037,0.,-0.16339848,0.00749127,0.,0.00897714,-0.00078732,0.,0.00114
 017,0.00095096,0.,-0.00016938,0.39764729,0.,-0.05036967,0.,0.,0.009619
 01,0.,0.,0.01713373,0.,0.,-0.00043032,0.,0.,0.03330267,-0.15861502,0.,
 -0.16671417,-0.03966336,0.,-0.01061548,0.00199589,0.,-0.00471556,-0.00
 150742,0.,0.00010441,0.17361907,0.,0.16565326,-0.34793074,0.,0.1853018
 7,0.01162340,0.,-0.00973538,0.00244467,0.,-0.00141666,-0.00046633,0.,-
 0.00021654,-0.01253311,0.,0.02353173,0.34763353,0.,-0.05174288,0.,0.,0
 .00669839,0.,0.,-0.01086605,0.,0.,0.00050085,0.,0.,0.00375533,0.,0.,0.
 03381100,0.18081972,0.,-0.21182513,0.03633408,0.,-0.01429598,0.0007303
 9,0.,0.00283783,0.00036425,0.,0.00024796,-0.01985757,0.,0.01454033,-0.
 19652748,0.,0.21389848,0.01096326,0.,-0.01200098,-0.34837718,0.,0.1812
 3543,-0.01995367,0.,0.02059987,0.00286882,0.,0.00203583,0.00199442,0.,
 0.00025734,-0.00058422,0.,-0.00158524,0.35562515,0.,0.00863607,0.,0.,-
 0.05751258,0.,0.,0.00383509,0.,0.,-0.00078488,0.,0.,-0.01160200,0.,0.,
 0.01733627,0.,0.,0.03780811,0.03758839,0.,-0.01512060,0.17709823,0.,-0
 .19953197,-0.02242210,0.,0.01323079,-0.00037017,0.,0.00225442,-0.00039
 833,0.,0.00231808,-0.00142255,0.,-0.00530455,-0.18721521,0.,0.20513558
 ,0.00286882,0.,0.00203583,-0.01995367,0.,0.02059987,-0.34837718,0.,0.1
 8123543,0.01096326,0.,-0.01200098,0.00053078,0.,0.00024062,-0.00008779
 ,0.,-0.00022453,-0.00297956,0.,-0.00334315,0.35562515,0.,-0.00078488,0
 .,0.,0.00383509,0.,0.,-0.05751258,0.,0.,0.00863607,0.,0.,-0.00026467,0
 .,0.,0.00001391,0.,0.,0.00253468,0.,0.,0.03780811,-0.00037017,0.,0.002
 25442,-0.02242210,0.,0.01323079,0.17709823,0.,-0.19953197,0.03758839,0
 .,-0.01512060,0.00023741,0.,-0.00005654,0.00024747,0.,-0.00001155,-0.0
 0334315,0.,-0.00291365,-0.18721521,0.,0.20513558,0.00095096,0.,-0.0001
 6938,-0.00078732,0.,0.00114017,0.00749127,0.,0.00897714,-0.39530037,0.
 ,-0.16339848,-0.00016176,0.,0.00006031,0.00016783,0.,-0.00021033,0.000
 53078,0.,0.00023741,0.00199442,0.,-0.00039833,0.39764729,0.,-0.0004303
 2,0.,0.,0.01713373,0.,0.,0.00961901,0.,0.,-0.05036967,0.,0.,-0.0019085
 0,0.,0.,0.00076444,0.,0.,-0.00026467,0.,0.,-0.01160200,0.,0.,0.0333026
 7,-0.00150742,0.,0.00010441,0.00199589,0.,-0.00471556,-0.03966336,0.,-
 0.01061548,-0.15861502,0.,-0.16671417,0.00006031,0.,-0.00048617,0.0000
 8083,0.,-0.00002816,0.00024062,0.,-0.00005654,0.00025734,0.,0.00231808
 ,0.17361907,0.,0.16565326,-0.00046633,0.,-0.00021654,0.00244467,0.,-0.
 00141666,0.01162340,0.,-0.00973538,-0.34793074,0.,0.18530187,0.0001678
 3,0.,0.00008083,-0.00026724,0.,0.00015671,-0.00008779,0.,0.00024747,-0
 .00058422,0.,-0.00142255,-0.01253311,0.,0.02353173,0.34763353,0.,0.000
 50085,0.,0.,-0.01086605,0.,0.,0.00669839,0.,0.,-0.05174288,0.,0.,0.000
 76444,0.,0.,-0.00027125,0.,0.,0.00001391,0.,0.,0.01733627,0.,0.,0.0037
 5533,0.,0.,0.03381100,0.00036425,0.,0.00024796,0.00073039,0.,0.0028378
 3,0.03633408,0.,-0.01429598,0.18081972,0.,-0.21182513,-0.00021033,0.,-
 0.00002816,0.00015671,0.,-0.00005923,-0.00022453,0.,-0.00001155,-0.001
 58524,0.,-0.00530455,-0.01985757,0.,0.01454033,-0.19652748,0.,0.213898
 48\\0.00008521,0.,0.00007934,0.00004224,0.,0.00031697,-0.00004224,0.,-
 0.00031697,-0.00008521,0.,-0.00007934,-0.00005556,0.,0.00010514,0.0002
 2332,0.,-0.00013988,-0.00031892,0.,0.00010978,0.00031892,0.,-0.0001097
 8,0.00005556,0.,-0.00010514,-0.00022332,0.,0.00013988\\\@


 A BIRD IN THE HAND IS SAFER THAN ONE OVERHEAD.

                       -- NEWTON'S SEVENTH LAW
 Job cpu time:  0 days  0 hours  0 minutes  3.4 seconds.
 File lengths (MBytes):  RWF=      5 Int=      0 D2E=      0 Chk=      1 Scr=      1
 Normal termination of Gaussian 09 at Sat Sep 22 14:46:55 2018.
